 Gaussian 16, Revision A.03,
 Gaussian 16:  ES64L-G16RevA.03 25-Dec-2016

 ----------------------------------------------------------------------
 #p opt=(maxcycles=777) freq ub3lyp/aug-cc-pVDZ pop=(Bonding,AllOrbital
 s,mk,no,nboread)
 ----------------------------------------------------------------------

 -----------------------------
 3-CF3PhN2+_UB3LYP-aug-cc-pVDZ
 -----------------------------
 Symbolic Z-matrix:
 Charge =  1 Multiplicity = 1

 SCF Done:  E(UB3LYP) =  -677.955643817     A.U. after   17 cycles
 Optimization completed.
    -- Stationary point found.
 Normal termination of Gaussian 16 at Sat Aug  8 21:28:08 2020.

 ----------------------------------------------------------------------
 #P Geom=AllCheck Guess=TCheck SCRF=Check GenChk UB3LYP/Aug-CC-pVDZ Fre
 q
 ----------------------------------------------------------------------

 Structure from the checkpoint file:  "3-CF3PhN2+_UB3LYP-aug-cc-pVDZ-Opt.chk"
 -----------------------------
 3-CF3PhN2+_UB3LYP-aug-cc-pVDZ
 -----------------------------
 Charge =  1 Multiplicity = 1

                         Standard orientation:
 ---------------------------------------------------------------------
 Center     Atomic      Atomic             Coordinates (Angstroms)
 Number     Number       Type             X           Y           Z
 ---------------------------------------------------------------------
      1          6           0       -2.033731    1.357390    0.000009
      2          6           0       -0.904611    2.168450   -0.000001
      3          6           0       -1.817921   -0.035080   -0.000001
      4          6           0        0.375609    1.598280   -0.000031
      5          6           0       -0.547191   -0.644700   -0.000031
      6          6           0        0.551039    0.203070   -0.000041
      7          7           0       -2.927921   -0.864021   -0.000001
      8          7           0       -3.821030   -1.528561    0.000009
      9          1           0       -1.020402    3.251260   -0.000001
     10          1           0        1.251429    2.247520   -0.000041
     11          1           0       -0.435190   -1.727120   -0.000041
     12          1           0       -3.041141    1.770639    0.000029
     13          6           0        1.962549   -0.365879   -0.000011
     14          9           0        2.635339    0.052111   -1.090081
     15          9           0        1.948910   -1.712959   -0.000341
     16          9           0        2.635029    0.051581    1.090489
 ---------------------------------------------------------------------

 SCF Done:  E(UB3LYP) =  -677.955643817     A.U. after    1 cycles

 Mulliken charges and spin densities:
               1          2
     1  C    0.455883   0.000000
     2  C    0.420710   0.000000
     3  C    0.982522  -0.000000
     4  C    0.307376  -0.000000
     5  C    1.063524   0.000000
     6  C    1.249421  -0.000000
     7  N    0.428896   0.000000
     8  N   -0.686810  -0.000000
     9  H   -0.689570  -0.000000
    10  H   -0.859136  -0.000000
    11  H   -0.858730   0.000000
    12  H   -0.726896  -0.000000
    13  C    1.269413   0.000000
    14  F   -0.434798   0.000000
    15  F   -0.487021   0.000000
    16  F   -0.434783   0.000000
 Sum of Mulliken charges =   1.00000   0.00000

 Dipole moment (field-independent basis, Debye):
    X=             -8.9140    Y=              1.7564    Z=             -0.0002  Tot=              9.0854
 Quadrupole moment (field-independent basis, Debye-Ang):
   XX=            -37.2268   YY=            -47.0670   ZZ=            -65.4596
   XY=              3.4720   XZ=             -0.0005   YZ=              0.0000

  Exact polarizability: 131.787  17.613 105.658  -0.000   0.000  54.582
 Approx polarizability: 224.172  49.256 190.211  -0.001   0.000  85.153

 ESP charges:
               1
     1  C   -0.113666
     2  C   -0.054601
     3  C   -0.004437
     4  C    0.024088
     5  C   -0.058038
     6  C   -0.102514
     7  N    0.463760
     8  N    0.024133
     9  H    0.174876
    10  H    0.160693
    11  H    0.182449
    12  H    0.199427
    13  C    0.608994
    14  F   -0.167963
    15  F   -0.169220
    16  F   -0.167980
 Sum of ESP charges =   1.00000

 Summary of Natural Population Analysis:

                                       Natural Population
                Natural  -----------------------------------------------
    Atom  No    Charge         Core      Valence    Rydberg      Total
 -----------------------------------------------------------------------
      C    1   -0.06955      0.99945     2.06143    0.00868     3.06955
      C    2   -0.09654      0.99950     2.08847    0.00857     3.09654
      C    3    0.00971      0.99937     1.97915    0.01177     2.99029
      C    4   -0.04354      0.99947     2.03543    0.00864     3.04354
      C    5   -0.06753      0.99940     2.05875    0.00937     3.06753
      C    6   -0.06454      0.99938     2.05332    0.01185     3.06454
      N    7    0.06697      0.99963     2.41681    0.01659     3.43303
      N    8    0.15611      0.99982     2.32840    0.01567     3.34389
      H    9    0.13998      0.00000     0.35803    0.00199     0.36002
      H   10    0.14040      0.00000     0.35696    0.00264     0.35960
      H   11    0.14631      0.00000     0.35113    0.00255     0.35369
      H   12    0.13922      0.00000     0.35844    0.00235     0.36078
      C   13    0.57600      0.99951     1.39862    0.02587     2.42400
      F   14   -0.17650      0.99996     3.66722    0.00932     4.67650
      F   15   -0.17998      0.99996     3.67062    0.00940     4.67998
      F   16   -0.17651      0.99996     3.66723    0.00932     4.67651
 =======================================================================
   * Total *    0.50000     11.99540    30.85000    0.15460    43.00000

                      1                      2                      3
                      A                      A                      A
 Frequencies --     17.3392               118.9329               122.2533
 Red. masses --     12.1160                 6.8084                12.7290
 Frc consts  --      0.0021                 0.0567                 0.1121
 IR Inten    --      0.0812                 0.0502                 2.1612

                      4                      5                      6
                      A                      A                      A
 Frequencies --    152.5438               212.4540               308.3441
 Red. masses --      5.8168                 7.9138                 5.7396
 Frc consts  --      0.0797                 0.2105                 0.3215
 IR Inten    --      0.0251                 0.0753                 0.3025

                      7                      8                      9
                      A                      A                      A
 Frequencies --    316.7335               379.0428               392.0539
 Red. masses --     11.0949                10.4325                 3.7006
 Frc consts  --      0.6558                 0.8831                 0.3351
 IR Inten    --      9.7956                 4.3414                 0.0114

                     10                     11                     12
                      A                      A                      A
 Frequencies --    465.5135               470.0179               538.6636
 Red. masses --      8.9099                 7.6574                 8.9656
 Frc consts  --      1.1376                 0.9967                 1.5327
 IR Inten    --      4.8919                 0.2561                 6.1293

                     13                     14                     15
                      A                      A                      A
 Frequencies --    539.6398               581.1239               619.9288
 Red. masses --     11.2190                 8.3801                 5.4802
 Frc consts  --      1.9249                 1.6674                 1.2409
 IR Inten    --      0.0796                 0.3515                 4.0781

                     16                     17                     18
                      A                      A                      A
 Frequencies --    656.1419               682.1593               729.4023
 Red. masses --      8.8489                 2.2389                11.1512
 Frc consts  --      2.2446                 0.6138                 3.4955
 IR Inten    --     15.6152                23.4526                 6.9805

                     19                     20                     21
                      A                      A                      A
 Frequencies --    807.6978               862.7667               912.8742
 Red. masses --      1.4122                 7.4597                 1.5671
 Frc consts  --      0.5428                 3.2716                 0.7694
 IR Inten    --     28.0241                 4.8532                23.3735

                     22                     23                     24
                      A                      A                      A
 Frequencies --    960.2723              1005.9952              1021.2067
 Red. masses --      1.3577                 6.2272                 1.4031
 Frc consts  --      0.7377                 3.7131                 0.8621
 IR Inten    --      0.1016                 2.9206                 0.0117

                     25                     26                     27
                      A                      A                      A
 Frequencies --   1073.2601              1119.7896              1123.8018
 Red. masses --      2.6542                 1.7125                 3.6101
 Frc consts  --      1.8013                 1.2652                 2.6863
 IR Inten    --     56.9593                62.3073               193.4602

                     28                     29                     30
                      A                      A                      A
 Frequencies --   1158.1832              1184.2137              1200.3285
 Red. masses --     12.7185                 6.7328                 1.1548
 Frc consts  --     10.0517                 5.5630                 0.9803
 IR Inten    --    245.9874               142.9093                 0.4582

                     31                     32                     33
                      A                      A                      A
 Frequencies --   1297.9161              1319.4686              1380.1620
 Red. masses --      2.7082                 1.7168                 7.1172
 Frc consts  --      2.6879                 1.7610                 7.9876
 IR Inten    --    174.4603                76.7911                19.0281

                     34                     35                     36
                      A                      A                      A
 Frequencies --   1446.4749              1497.9441              1598.9560
 Red. masses --      2.5451                 2.8110                 6.0063
 Frc consts  --      3.1375                 3.7162                 9.0475
 IR Inten    --     11.6559                 2.9540                66.3623

                     37                     38                     39
                      A                      A                      A
 Frequencies --   1632.2777              2343.1110              3204.5698
 Red. masses --      5.6959                13.9468                 1.0912
 Frc consts  --      8.9414                45.1140                 6.6021
 IR Inten    --     52.5320               227.6791                 2.0225

                     40                     41                     42
                      A                      A                      A
 Frequencies --   3213.5896              3223.6768              3224.4670
 Red. masses --      1.0930                 1.0978                 1.0963
 Frc consts  --      6.6504                 6.7217                 6.7157
 IR Inten    --      9.8637                24.4579                 4.4830

 - Thermochemistry -
 -------------------
 Temperature   298.150 Kelvin.  Pressure   1.00000 Atm.
 Atom     1 has atomic number  6 and mass  12.00000

 Molecular mass:   173.03266 amu.
 Principal axes and moments of inertia in atomic units:
                           1         2         3
     Eigenvalues --  1007.356433112.048453796.81189
           X            0.99999  -0.00423  -0.00000
           Y            0.00423   0.99999  -0.00000
           Z            0.00000   0.00000   1.00000
 This molecule is an asymmetric top.
 Rotational symmetry number  1.
 Warning -- assumption of classical behavior for rotation
           may cause significant error
 Rotational temperatures (Kelvin)      0.08598     0.02783     0.02281
 Rotational constants (GHZ):           1.79156     0.57992     0.47533
 Zero-point vibrational energy     269849.4 (Joules/Mol)
                                   64.49555 (Kcal/Mol)
 Warning -- explicit consideration of  15 degrees of freedom as
           vibrations may cause significant error
 Vibrational temperatures:     24.95   171.12   175.90   219.48   305.67
          (Kelvin)            443.64   455.71   545.36   564.08   669.77
                              676.25   775.02   776.42   836.11   891.94
                              944.04   981.48  1049.45  1162.10  1241.33
                             1313.42  1381.62  1447.40  1469.29  1544.18
                             1611.13  1616.90  1666.37  1703.82  1727.00
                             1867.41  1898.42  1985.75  2081.15  2155.21
                             2300.54  2348.48  3371.21  4610.66  4623.64
                             4638.15  4639.29

 Zero-point correction=                           0.102780 (Hartree/Particle)
 Thermal correction to Energy=                    0.112589
 Thermal correction to Enthalpy=                  0.113533
 Thermal correction to Gibbs Free Energy=         0.065829
 Sum of electronic and zero-point Energies=           -677.852864
 Sum of electronic and thermal Energies=              -677.843055
 Sum of electronic and thermal Enthalpies=            -677.842110
 Sum of electronic and thermal Free Energies=         -677.889815

                     E (Thermal)             CV                S
                      KCal/Mol        Cal/Mol-Kelvin    Cal/Mol-Kelvin
 Total                   70.651             36.393            100.403
 Electronic               0.000              0.000              0.000
 Translational            0.889              2.981             41.352
 Rotational               0.889              2.981             30.855
 Vibrational             68.873             30.431             28.196
 Vibration     1          0.593              1.986              6.918
 Vibration     2          0.609              1.934              3.118
 Vibration     3          0.610              1.931              3.064
 Vibration     4          0.619              1.900              2.640
 Vibration     5          0.643              1.822              2.022
 Vibration     6          0.698              1.658              1.371
 Vibration     7          0.704              1.642              1.327
 Vibration     8          0.749              1.515              1.043
 Vibration     9          0.759              1.487              0.992
 Vibration    10          0.823              1.327              0.750
 Vibration    11          0.827              1.317              0.737
 Vibration    12          0.894              1.165              0.568
 Vibration    13          0.895              1.162              0.566
 Vibration    14          0.938              1.072              0.483
 Vibration    15          0.980              0.990              0.417

 Optimization completed.
    -- Stationary point found.
 Normal termination of Gaussian 16 at Sat Aug  8 21:55:13 2020.
