 Gaussian 16, Revision A.03,
 Gaussian 16:  ES64L-G16RevA.03 25-Dec-2016

 ----------------------------------------------------------------------
 #p opt=(maxcycles=777) freq ub3lyp/aug-cc-pVDZ pop=(Bonding,AllOrbital
 s,mk,no,nboread)
 ----------------------------------------------------------------------

 ---------------------------
 3-FPhN2+_UB3LYP-aug-cc-pVDZ
 ---------------------------
 Symbolic Z-matrix:
 Charge =  1 Multiplicity = 1

 SCF Done:  E(UB3LYP) =  -440.121380444     A.U. after   16 cycles
 Optimization completed.
    -- Stationary point found.
 Normal termination of Gaussian 16 at Sat Aug  8 22:42:44 2020.

 ----------------------------------------------------------------------
 #P Geom=AllCheck Guess=TCheck SCRF=Check GenChk UB3LYP/Aug-CC-pVDZ Fre
 q
 ----------------------------------------------------------------------

 Structure from the checkpoint file:  "3-FPhN2+_UB3LYP-aug-cc-pVDZ-Opt.chk"
 ---------------------------
 3-FPhN2+_UB3LYP-aug-cc-pVDZ
 ---------------------------
 Charge =  1 Multiplicity = 1

                         Standard orientation:
 ---------------------------------------------------------------------
 Center     Atomic      Atomic             Coordinates (Angstroms)
 Number     Number       Type             X           Y           Z
 ---------------------------------------------------------------------
      1          6           0       -0.623431    1.425460    0.000061
      2          6           0        0.714489    1.809470    0.000061
      3          6           0       -0.887141    0.041520    0.000011
      4          6           0        1.733909    0.849221    0.000011
      5          6           0        0.099830   -0.964450   -0.000039
      6          6           0        1.411929   -0.514269   -0.000039
      7          7           0       -2.212151   -0.361920    0.000021
      8          7           0       -3.279001   -0.680340    0.000021
      9          1           0        0.968539    2.868460    0.000101
     10          1           0        2.783539    1.143451    0.000011
     11          1           0       -0.139120   -2.026220   -0.000079
     12          1           0       -1.433171    2.152610    0.000101
     13          9           0        2.395640   -1.413799   -0.000089
 ---------------------------------------------------------------------

 SCF Done:  E(UB3LYP) =  -440.121380444     A.U. after    1 cycles

 Mulliken charges and spin densities:
               1          2
     1  C    0.571688  -0.000000
     2  C    0.867895   0.000000
     3  C    1.320187  -0.000000
     4  C    0.745739   0.000000
     5  C    0.591528  -0.000000
     6  C    0.350854  -0.000000
     7  N    0.413507  -0.000000
     8  N   -0.652060   0.000000
     9  H   -0.663501   0.000000
    10  H   -0.656628  -0.000000
    11  H   -0.664643   0.000000
    12  H   -0.710563   0.000000
    13  F   -0.514003   0.000000
 Sum of Mulliken charges =   1.00000  -0.00000

 Dipole moment (field-independent basis, Debye):
    X=             -3.3756    Y=              1.7494    Z=              0.0001  Tot=              3.8020
 Quadrupole moment (field-independent basis, Debye-Ang):
   XX=            -29.0997   YY=            -35.5256   ZZ=            -49.1361
   XY=              5.3726   XZ=             -0.0001   YZ=              0.0005

  Exact polarizability: 122.630  10.945  85.351  -0.001   0.002  42.361
 Approx polarizability: 234.110  27.557 151.242  -0.001   0.003  65.453

 ESP charges:
               1
     1  C   -0.151510
     2  C   -0.037663
     3  C   -0.017450
     4  C   -0.137703
     5  C   -0.243448
     6  C    0.411146
     7  N    0.504261
     8  N    0.008958
     9  H    0.181510
    10  H    0.199853
    11  H    0.232488
    12  H    0.203241
    13  F   -0.153684
 Sum of ESP charges =   1.00000

 Summary of Natural Population Analysis:

                                       Natural Population
                Natural  -----------------------------------------------
    Atom  No    Charge         Core      Valence    Rydberg      Total
 -----------------------------------------------------------------------
      C    1   -0.08090      0.99945     2.07275    0.00870     3.08090
      C    2   -0.09368      0.99951     2.08577    0.00840     3.09368
      C    3    0.01358      0.99938     1.97593    0.01112     2.98642
      C    4   -0.08632      0.99945     2.07767    0.00920     3.08632
      C    5   -0.11081      0.99940     2.10130    0.01012     3.11081
      C    6    0.22494      0.99921     1.76199    0.01386     2.77506
      N    7    0.06686      0.99963     2.41684    0.01667     3.43314
      N    8    0.15501      0.99982     2.32950    0.01567     3.34499
      H    9    0.13945      0.00000     0.35851    0.00205     0.36055
      H   10    0.14182      0.00000     0.35554    0.00264     0.35818
      H   11    0.14495      0.00000     0.35257    0.00249     0.35505
      H   12    0.13884      0.00000     0.35883    0.00234     0.36116
      F   13   -0.15373      0.99996     3.64862    0.00514     4.65373
 =======================================================================
   * Total *    0.50000      8.99581    21.89582    0.10837    31.00000

                      1                      2                      3
                      A                      A                      A
 Frequencies --    141.5307               158.7802               229.0780
 Red. masses --      6.4319                 9.7701                 4.9514
 Frc consts  --      0.0759                 0.1451                 0.1531
 IR Inten    --      0.0173                 1.3566                 0.7972

                      4                      5                      6
                      A                      A                      A
 Frequencies --    391.7214               402.2666               455.4407
 Red. masses --      8.3613                 3.9936                 8.5321
 Frc consts  --      0.7559                 0.3808                 1.0427
 IR Inten    --      2.5461                 0.0100                 5.6987

                      7                      8                      9
                      A                      A                      A
 Frequencies --    478.4614               515.0822               568.0641
 Red. masses --      4.3164                 8.8649                 7.1267
 Frc consts  --      0.5822                 1.3857                 1.3550
 IR Inten    --      5.0087                 4.8878                 0.5549

                     10                     11                     12
                      A                      A                      A
 Frequencies --    587.3756               653.6897               717.5049
 Red. masses --      6.8754                 2.2003                 7.8095
 Frc consts  --      1.3976                 0.5539                 2.3688
 IR Inten    --      1.3227                22.0634                 4.9297

                     13                     14                     15
                      A                      A                      A
 Frequencies --    793.3995               879.9137               941.4355
 Red. masses --      1.3140                 1.6101                 1.3726
 Frc consts  --      0.4874                 0.7345                 0.7168
 IR Inten    --     28.8447                33.4612                 0.3374

                     16                     17                     18
                      A                      A                      A
 Frequencies --    944.4151              1005.3094              1012.3089
 Red. masses --      3.9885                 6.0643                 1.3765
 Frc consts  --      2.0960                 3.6110                 0.8311
 IR Inten    --     13.7635                 3.3581                 0.1310

                     19                     20                     21
                      A                      A                      A
 Frequencies --   1101.4837              1103.8288              1186.8307
 Red. masses --      2.0158                 1.5428                 1.1480
 Frc consts  --      1.4410                 1.1076                 0.9527
 IR Inten    --     43.8155                24.2983                 2.2943

                     22                     23                     24
                      A                      A                      A
 Frequencies --   1263.7579              1299.9038              1384.8709
 Red. masses --      2.9907                 1.6002                 7.5555
 Frc consts  --      2.8141                 1.5931                 8.5376
 IR Inten    --    156.1499                28.9865                24.4292

                     25                     26                     27
                      A                      A                      A
 Frequencies --   1447.7424              1498.2714              1600.5673
 Red. masses --      2.6564                 3.0042                 6.4672
 Frc consts  --      3.2803                 3.9733                 9.7614
 IR Inten    --      5.3514               107.0729                48.9923

                     28                     29                     30
                      A                      A                      A
 Frequencies --   1619.9966              2342.6451              3209.3486
 Red. masses --      5.9761                13.9505                 1.0906
 Frc consts  --      9.2405                45.1081                 6.6186
 IR Inten    --     61.7373               237.1320                 1.5107

                     31                     32                     33
                      A                      A                      A
 Frequencies --   3217.4760              3225.5853              3227.0795
 Red. masses --      1.0939                 1.0957                 1.0991
 Frc consts  --      6.6721                 6.7169                 6.7436
 IR Inten    --     12.4359                24.9071                 7.3452

 - Thermochemistry -
 -------------------
 Temperature   298.150 Kelvin.  Pressure   1.00000 Atm.
 Atom     1 has atomic number  6 and mass  12.00000

 Molecular mass:   123.03585 amu.
 Principal axes and moments of inertia in atomic units:
                           1         2         3
     Eigenvalues --   539.184371497.962192037.14656
           X            0.99971   0.02420   0.00001
           Y           -0.02420   0.99971  -0.00004
           Z           -0.00002   0.00004   1.00000
 This molecule is an asymmetric top.
 Rotational symmetry number  1.
 Warning -- assumption of classical behavior for rotation
           may cause significant error
 Rotational temperatures (Kelvin)      0.16064     0.05782     0.04252
 Rotational constants (GHZ):           3.34717     1.20480     0.88592
 Zero-point vibrational energy     236891.5 (Joules/Mol)
                                   56.61843 (Kcal/Mol)
 Warning -- explicit consideration of  10 degrees of freedom as
           vibrations may cause significant error
 Vibrational temperatures:    203.63   228.45   329.59   563.60   578.77
          (Kelvin)            655.28   688.40   741.09   817.32   845.10
                              940.51  1032.33  1141.52  1266.00  1354.52
                             1358.80  1446.42  1456.49  1584.79  1588.16
                             1707.58  1818.27  1870.27  1992.52  2082.98
                             2155.68  2302.86  2330.81  3370.54  4617.54
                             4629.23  4640.90  4643.05

 Zero-point correction=                           0.090227 (Hartree/Particle)
 Thermal correction to Energy=                    0.097202
 Thermal correction to Enthalpy=                  0.098146
 Thermal correction to Gibbs Free Energy=         0.058606
 Sum of electronic and zero-point Energies=           -440.031153
 Sum of electronic and thermal Energies=              -440.024178
 Sum of electronic and thermal Enthalpies=            -440.023234
 Sum of electronic and thermal Free Energies=         -440.062774

                     E (Thermal)             CV                S
                      KCal/Mol        Cal/Mol-Kelvin    Cal/Mol-Kelvin
 Total                   60.995             26.533             83.219
 Electronic               0.000              0.000              0.000
 Translational            0.889              2.981             40.336
 Rotational               0.889              2.981             28.888
 Vibrational             59.218             20.572             13.995
 Vibration     1          0.615              1.912              2.783
 Vibration     2          0.621              1.893              2.564
 Vibration     3          0.652              1.797              1.886
 Vibration     4          0.759              1.488              0.994
 Vibration     5          0.768              1.465              0.954
 Vibration     6          0.814              1.349              0.779
 Vibration     7          0.835              1.298              0.714
 Vibration     8          0.870              1.217              0.621
 Vibration     9          0.924              1.100              0.508
 Vibration    10          0.945              1.059              0.472

 Optimization completed.
    -- Stationary point found.
 Normal termination of Gaussian 16 at Sat Aug  8 22:55:34 2020.
