 Gaussian 16, Revision A.03,
 Gaussian 16:  ES64L-G16RevA.03 25-Dec-2016

 ----------------------------------------------------------------------
 #p opt=(maxcycles=777) freq ub3lyp/aug-cc-pVDZ pop=(Bonding,AllOrbital
 s,mk,no,nboread)
 ----------------------------------------------------------------------

 ----------------------------
 3-HOPhN2+_UB3LYP-aug-cc-pVDZ
 ----------------------------
 Symbolic Z-matrix:
 Charge =  1 Multiplicity = 1

 SCF Done:  E(UB3LYP) =  -416.118777942     A.U. after   17 cycles
 Optimization completed.
    -- Stationary point found.
 Normal termination of Gaussian 16 at Sat Aug  8 23:20:16 2020.

 ----------------------------------------------------------------------
 #P Geom=AllCheck Guess=TCheck SCRF=Check GenChk UB3LYP/Aug-CC-pVDZ Fre
 q
 ----------------------------------------------------------------------

 Structure from the checkpoint file:  "3-HOPhN2+_UB3LYP-aug-cc-pVDZ-Opt.chk"
 ----------------------------
 3-HOPhN2+_UB3LYP-aug-cc-pVDZ
 ----------------------------
 Charge =  1 Multiplicity = 1

                         Standard orientation:
 ---------------------------------------------------------------------
 Center     Atomic      Atomic             Coordinates (Angstroms)
 Number     Number       Type             X           Y           Z
 ---------------------------------------------------------------------
      1          6           0       -0.103749   -0.948489    0.000171
      2          6           0       -1.430048   -0.504948    0.000101
      3          6           0        0.896212    0.039100   -0.000009
      4          6           0       -1.701088    0.880022    0.000101
      5          6           0        0.664513    1.428640   -0.000039
      6          6           0       -0.669477    1.824881   -0.000029
      7          7           0        2.213322   -0.389981   -0.000059
      8          7           0        3.274241   -0.727982    0.000001
      9          1           0       -2.737327    1.222512    0.000241
     10          1           0        1.485403    2.142210   -0.000259
     11          1           0        0.128221   -2.011649    0.000441
     12          1           0       -0.912066    2.886561   -0.000069
     13          8           0       -2.380279   -1.455868   -0.000229
     14          1           0       -3.273119   -1.082187    0.000131
 ---------------------------------------------------------------------

 SCF Done:  E(UB3LYP) =  -416.118777942     A.U. after    1 cycles

 Mulliken charges and spin densities:
               1          2
     1  C    0.635903  -0.000000
     2  C    0.569034  -0.000000
     3  C    1.218966   0.000000
     4  C    0.821684   0.000000
     5  C    0.578454  -0.000000
     6  C    0.728196  -0.000000
     7  N    0.432638  -0.000000
     8  N   -0.664329   0.000000
     9  H   -0.838496   0.000000
    10  H   -0.727375   0.000000
    11  H   -0.713204  -0.000000
    12  H   -0.686467   0.000000
    13  O   -0.565401   0.000000
    14  H    0.210398   0.000000
 Sum of Mulliken charges =   1.00000   0.00000

 Dipole moment (field-independent basis, Debye):
    X=              0.9372    Y=              1.4297    Z=              0.0008  Tot=              1.7095
 Quadrupole moment (field-independent basis, Debye-Ang):
   XX=            -19.9699   YY=            -38.7732   ZZ=            -50.9432
   XY=             -3.1318   XZ=             -0.0030   YZ=             -0.0021

  Exact polarizability: 132.014  -8.448  91.898  -0.001  -0.001  44.880
 Approx polarizability: 246.400 -26.732 166.955  -0.002  -0.002  69.332

 ESP charges:
               1
     1  C   -0.179257
     2  C    0.372281
     3  C   -0.049992
     4  C   -0.185332
     5  C   -0.146984
     6  C   -0.032380
     7  N    0.496206
     8  N    0.003563
     9  H    0.180841
    10  H    0.196631
    11  H    0.221722
    12  H    0.176268
    13  O   -0.485188
    14  H    0.431621
 Sum of ESP charges =   1.00000

 Summary of Natural Population Analysis:

                                       Natural Population
                Natural  -----------------------------------------------
    Atom  No    Charge         Core      Valence    Rydberg      Total
 -----------------------------------------------------------------------
      C    1   -0.10470      0.99940     2.09511    0.01019     3.10470
      C    2    0.17587      0.99937     1.81328    0.01147     2.82413
      C    3    0.01533      0.99937     1.97396    0.01134     2.98467
      C    4   -0.09599      0.99946     2.08791    0.00863     3.09599
      C    5   -0.09066      0.99944     2.08236    0.00885     3.09066
      C    6   -0.09291      0.99951     2.08481    0.00859     3.09291
      N    7    0.06833      0.99963     2.41524    0.01679     3.43167
      N    8    0.14989      0.99982     2.33454    0.01576     3.35011
      H    9    0.13123      0.00000     0.36628    0.00249     0.36877
      H   10    0.13739      0.00000     0.36028    0.00233     0.36261
      H   11    0.14188      0.00000     0.35567    0.00244     0.35812
      H   12    0.13735      0.00000     0.36058    0.00207     0.36265
      O   13   -0.33159      0.99987     3.31949    0.01224     4.33159
      H   14    0.25857      0.00000     0.23845    0.00298     0.24143
 =======================================================================
   * Total *    0.50000      8.99588    21.88795    0.11617    31.00000

                      1                      2                      3
                      A                      A                      A
 Frequencies --    140.2655               158.6761               217.8374
 Red. masses --      5.8656                 8.6354                 4.4406
 Frc consts  --      0.0680                 0.1281                 0.1242
 IR Inten    --      0.9137                 0.2253                 0.0496

                      4                      5                      6
                      A                      A                      A
 Frequencies --    395.2937               399.8332               416.3822
 Red. masses --      5.0532                 3.9420                 1.1148
 Frc consts  --      0.4652                 0.3713                 0.1139
 IR Inten    --     10.8922                 0.8933               106.9567

                      7                      8                      9
                      A                      A                      A
 Frequencies --    456.3156               485.0181               527.5838
 Red. masses --      8.3558                 4.1135                 7.4691
 Frc consts  --      1.0251                 0.5701                 1.2249
 IR Inten    --      5.9409                12.4801                 1.5060

                     10                     11                     12
                      A                      A                      A
 Frequencies --    570.5546               593.3552               657.3019
 Red. masses --      6.4359                 6.1021                 2.0735
 Frc consts  --      1.2344                 1.2658                 0.5278
 IR Inten    --      1.1648                 0.0743                23.3374

                     13                     14                     15
                      A                      A                      A
 Frequencies --    719.8922               780.8602               875.8950
 Red. masses --      7.4817                 1.3358                 1.6889
 Frc consts  --      2.2845                 0.4799                 0.7634
 IR Inten    --      2.4953                31.1727                27.8826

                     16                     17                     18
                      A                      A                      A
 Frequencies --    923.5849               949.7579               998.8060
 Red. masses --      1.3772                 3.8203                 6.0840
 Frc consts  --      0.6922                 2.0304                 3.5760
 IR Inten    --      0.1777                18.2666                 6.8298

                     19                     20                     21
                      A                      A                      A
 Frequencies --   1006.8573              1103.0936              1113.0980
 Red. masses --      1.3717                 1.9413                 1.8015
 Frc consts  --      0.8193                 1.3918                 1.3151
 IR Inten    --      0.0361                70.4292                 5.1533

                     22                     23                     24
                      A                      A                      A
 Frequencies --   1191.4427              1195.6355              1299.2019
 Red. masses --      1.2426                 1.1811                 2.2342
 Frc consts  --      1.0393                 0.9948                 2.2219
 IR Inten    --    142.7525                42.2098                73.3578

                     25                     26                     27
                      A                      A                      A
 Frequencies --   1333.4849              1395.9119              1469.2672
 Red. masses --      1.6708                 6.4596                 2.3920
 Frc consts  --      1.7505                 7.4160                 3.0423
 IR Inten    --    122.5587                10.3086                15.5575

                     28                     29                     30
                      A                      A                      A
 Frequencies --   1508.1493              1597.3530              1629.3874
 Red. masses --      3.1039                 5.8117                 5.6101
 Frc consts  --      4.1596                 8.7369                 8.7754
 IR Inten    --     79.2671                77.1805                85.3641

                     31                     32                     33
                      A                      A                      A
 Frequencies --   2340.3935              3187.5120              3213.8504
 Red. masses --     13.9457                 1.0918                 1.0925
 Frc consts  --     45.0058                 6.5356                 6.6483
 IR Inten    --    265.0999                 1.4138                 3.1011

                     34                     35                     36
                      A                      A                      A
 Frequencies --   3223.2181              3230.0054              3786.5850
 Red. masses --      1.0949                 1.0979                 1.0670
 Frc consts  --      6.7017                 6.7484                 9.0135
 IR Inten    --     14.2286                11.4447               172.9663

 - Thermochemistry -
 -------------------
 Temperature   298.150 Kelvin.  Pressure   1.00000 Atm.
 Atom     1 has atomic number  6 and mass  12.00000

 Molecular mass:   121.04019 amu.
 Principal axes and moments of inertia in atomic units:
                           1         2         3
     Eigenvalues --   538.444981465.025732003.47070
           X            1.00000   0.00144  -0.00000
           Y           -0.00144   1.00000  -0.00001
           Z            0.00000   0.00001   1.00000
 This molecule is an asymmetric top.
 Rotational symmetry number  1.
 Warning -- assumption of classical behavior for rotation
           may cause significant error
 Rotational temperatures (Kelvin)      0.16086     0.05912     0.04323
 Rotational constants (GHZ):           3.35177     1.23188     0.90081
 Zero-point vibrational energy     269708.0 (Joules/Mol)
                                   64.46177 (Kcal/Mol)
 Warning -- explicit consideration of  11 degrees of freedom as
           vibrations may cause significant error
 Vibrational temperatures:    201.81   228.30   313.42   568.74   575.27
          (Kelvin)            599.08   656.54   697.83   759.08   820.90
                              853.71   945.71  1035.76  1123.48  1260.22
                             1328.83  1366.49  1437.06  1448.64  1587.11
                             1601.50  1714.22  1720.25  1869.26  1918.59
                             2008.41  2113.95  2169.89  2298.23  2344.32
                             3367.30  4586.12  4624.01  4637.49  4647.26
                             5448.05

 Zero-point correction=                           0.102726 (Hartree/Particle)
 Thermal correction to Energy=                    0.110011
 Thermal correction to Enthalpy=                  0.110955
 Thermal correction to Gibbs Free Energy=         0.070988
 Sum of electronic and zero-point Energies=           -416.016052
 Sum of electronic and thermal Energies=              -416.008767
 Sum of electronic and thermal Enthalpies=            -416.007823
 Sum of electronic and thermal Free Energies=         -416.047790

                     E (Thermal)             CV                S
                      KCal/Mol        Cal/Mol-Kelvin    Cal/Mol-Kelvin
 Total                   69.033             28.113             84.119
 Electronic               0.000              0.000              0.000
 Translational            0.889              2.981             40.287
 Rotational               0.889              2.981             28.848
 Vibrational             67.256             22.152             14.984
 Vibration     1          0.615              1.913              2.800
 Vibration     2          0.621              1.893              2.566
 Vibration     3          0.646              1.814              1.977
 Vibration     4          0.762              1.480              0.980
 Vibration     5          0.766              1.470              0.963
 Vibration     6          0.780              1.435              0.904
 Vibration     7          0.815              1.347              0.777
 Vibration     8          0.841              1.283              0.697
 Vibration     9          0.883              1.189              0.593
 Vibration    10          0.927              1.095              0.503
 Vibration    11          0.951              1.046              0.461

 Optimization completed.
    -- Stationary point found.
 Normal termination of Gaussian 16 at Sat Aug  8 23:34:37 2020.
