 Gaussian 16, Revision A.03,
 Gaussian 16:  ES64L-G16RevA.03 25-Dec-2016

 ----------------------------------------------------------------------
 #p opt=(maxcycles=777) freq ub3lyp/aug-cc-pVDZ pop=(Bonding,AllOrbital
 s,mk,no,nboread)
 ----------------------------------------------------------------------

 ----------------------------
 3-MePhN2+_UB3LYP-aug-cc-pVDZ
 ----------------------------
 Symbolic Z-matrix:
 Charge =  1 Multiplicity = 1

 SCF Done:  E(UB3LYP) =  -380.206181785     A.U. after   16 cycles
 Optimization completed.
    -- Stationary point found.
 Normal termination of Gaussian 16 at Sun Aug  9 15:51:02 2020.

 ----------------------------------------------------------------------
 #P Geom=AllCheck Guess=TCheck SCRF=Check GenChk UB3LYP/Aug-CC-pVDZ Fre
 q
 ----------------------------------------------------------------------

 Structure from the checkpoint file:  "3-MePhN2+_UB3LYP-aug-cc-pVDZ-Opt.chk"
 ----------------------------
 3-MePhN2+_UB3LYP-aug-cc-pVDZ
 ----------------------------
 Charge =  1 Multiplicity = 1

                         Standard orientation:
 ---------------------------------------------------------------------
 Center     Atomic      Atomic             Coordinates (Angstroms)
 Number     Number       Type             X           Y           Z
 ---------------------------------------------------------------------
      1          6           0       -0.765493    1.423848    0.000079
      2          6           0        0.542507    1.887869    0.000059
      3          6           0       -0.927982    0.023018    0.000009
      4          6           0        1.617177    0.985189   -0.000031
      5          6           0        0.132258   -0.905541   -0.000071
      6          6           0        1.439758   -0.414141   -0.000071
      7          7           0       -2.217062   -0.475402   -0.000011
      8          7           0       -3.256652   -0.876442   -0.000011
      9          1           0        0.731217    2.960499    0.000089
     10          1           0        2.632387    1.383059   -0.000081
     11          1           0       -0.073682   -1.975351   -0.000131
     12          1           0       -1.623573    2.093268    0.000119
     13          6           0        2.612848   -1.360821    0.000009
     14          1           0        2.591568   -2.008581    0.887329
     15          1           0        2.589368   -2.011621   -0.885011
     16          1           0        3.562278   -0.814891   -0.002051
 ---------------------------------------------------------------------

 SCF Done:  E(UB3LYP) =  -380.206181785     A.U. after    1 cycles

 Mulliken charges and spin densities:
               1          2
     1  C    0.725852  -0.000000
     2  C    0.231562  -0.000000
     3  C    0.584795   0.000000
     4  C    1.437377  -0.000000
     5  C    1.078270  -0.000000
     6  C    0.210214   0.000000
     7  N    0.435116  -0.000000
     8  N   -0.719362   0.000000
     9  H   -0.701927   0.000000
    10  H   -0.868267   0.000000
    11  H   -0.906106   0.000000
    12  H   -0.742407   0.000000
    13  C    0.758431   0.000000
    14  H   -0.068408   0.000000
    15  H   -0.069187   0.000000
    16  H   -0.385956  -0.000000
 Sum of Mulliken charges =   1.00000  -0.00000

 Dipole moment (field-independent basis, Debye):
    X=             -1.4374    Y=              0.1289    Z=              0.0003  Tot=              1.4431
 Quadrupole moment (field-independent basis, Debye-Ang):
   XX=            -26.7494   YY=            -36.1651   ZZ=            -51.6792
   XY=              0.3377   XZ=              0.0005   YZ=              0.0002

  Exact polarizability: 139.135   7.486  99.465   0.002   0.000  51.878
 Approx polarizability: 251.569  32.624 172.076   0.003   0.000  80.887

 ESP charges:
               1
     1  C   -0.125605
     2  C   -0.054410
     3  C   -0.054664
     4  C   -0.114742
     5  C   -0.194985
     6  C    0.285888
     7  N    0.510328
     8  N   -0.013071
     9  H    0.172168
    10  H    0.169990
    11  H    0.195515
    12  H    0.192324
    13  C   -0.454207
    14  H    0.162019
    15  H    0.161958
    16  H    0.161496
 Sum of ESP charges =   1.00000

 Summary of Natural Population Analysis:

                                       Natural Population
                Natural  -----------------------------------------------
    Atom  No    Charge         Core      Valence    Rydberg      Total
 -----------------------------------------------------------------------
      C    1   -0.08157      0.99944     2.07339    0.00873     3.08157
      C    2   -0.09671      0.99950     2.08864    0.00857     3.09671
      C    3    0.01070      0.99937     1.97828    0.01165     2.98930
      C    4   -0.05724      0.99946     2.04998    0.00780     3.05724
      C    5   -0.07574      0.99939     2.06782    0.00853     3.07574
      C    6   -0.00639      0.99948     1.99905    0.00786     3.00639
      N    7    0.06712      0.99963     2.41647    0.01677     3.43288
      N    8    0.14512      0.99982     2.33921    0.01585     3.35488
      H    9    0.13650      0.00000     0.36146    0.00204     0.36350
      H   10    0.13170      0.00000     0.36609    0.00221     0.36830
      H   11    0.13461      0.00000     0.36318    0.00221     0.36539
      H   12    0.13658      0.00000     0.36105    0.00237     0.36342
      C   13   -0.33082      0.99965     2.32544    0.00574     3.33082
      H   14    0.13005      0.00000     0.36861    0.00134     0.36995
      H   15    0.13002      0.00000     0.36864    0.00134     0.36998
      H   16    0.12608      0.00000     0.37239    0.00152     0.37392
 =======================================================================
   * Total *    0.50000      8.99575    21.89971    0.10454    31.00000

 ******    1 imaginary frequencies (negative Signs) ******

                      1                      2                      3
                      A                      A                      A
 Frequencies --    -33.5079               139.0149               156.0498
 Red. masses --      1.0304                 5.6061                 6.6214
 Frc consts  --      0.0007                 0.0638                 0.0950
 IR Inten    --      0.2943                 0.1741                 0.3510

                      4                      5                      6
                      A                      A                      A
 Frequencies --    206.6767               341.3925               392.2588
 Red. masses --      2.9573                 2.9207                 3.7074
 Frc consts  --      0.0744                 0.2006                 0.3361
 IR Inten    --      0.9313                 0.5111                 0.0295

                      7                      8                      9
                      A                      A                      A
 Frequencies --    458.2750               459.7873               516.9737
 Red. masses --      3.4348                 8.4801                 5.2200
 Frc consts  --      0.4250                 1.0562                 0.8220
 IR Inten    --      6.7422                 7.8123                 0.4587

                     10                     11                     12
                      A                      A                      A
 Frequencies --    562.7533               571.3137               659.2777
 Red. masses --      6.9158                 6.0912                 2.3166
 Frc consts  --      1.2904                 1.1714                 0.5933
 IR Inten    --      0.2049                 1.8159                18.3022

                     13                     14                     15
                      A                      A                      A
 Frequencies --    715.0426               787.3544               866.7866
 Red. masses --      6.6154                 1.3409                 1.3602
 Frc consts  --      1.9928                 0.4897                 0.6021
 IR Inten    --      0.1395                34.0329                 7.1628

                     16                     17                     18
                      A                      A                      A
 Frequencies --    907.4775               947.0285              1004.4202
 Red. masses --      3.5150                 1.3163                 5.9676
 Frc consts  --      1.7055                 0.6955                 3.5471
 IR Inten    --      5.2013                 1.6956                 2.7088

                     19                     20                     21
                      A                      A                      A
 Frequencies --   1016.4817              1024.4071              1059.2462
 Red. masses --      1.3768                 1.5178                 1.5974
 Frc consts  --      0.8382                 0.9385                 1.0560
 IR Inten    --      0.7135                 3.5424                 3.7236

                     22                     23                     24
                      A                      A                      A
 Frequencies --   1109.2311              1127.7114              1194.5210
 Red. masses --      1.6773                 2.1352                 1.2119
 Frc consts  --      1.2159                 1.5999                 1.0188
 IR Inten    --     59.7250                41.4146                 3.6140

                     25                     26                     27
                      A                      A                      A
 Frequencies --   1234.7514              1321.8764              1374.8378
 Red. masses --      2.4597                 1.3569                 5.1896
 Frc consts  --      2.2095                 1.3969                 5.7795
 IR Inten    --     42.5135                 1.1240                16.8309

                     28                     29                     30
                      A                      A                      A
 Frequencies --   1404.8275              1433.0540              1459.2937
 Red. masses --      1.2476                 2.0753                 1.0401
 Frc consts  --      1.4507                 2.5111                 1.3050
 IR Inten    --      9.9611                 1.3653                10.3737

                     31                     32                     33
                      A                      A                      A
 Frequencies --   1476.9224              1496.9183              1591.0019
 Red. masses --      1.2299                 2.5540                 5.1425
 Frc consts  --      1.5807                 3.3718                 7.6695
 IR Inten    --     10.6796                23.2268                78.5796

                     34                     35                     36
                      A                      A                      A
 Frequencies --   1619.0064              2332.9286              3046.0603
 Red. masses --      5.5359                13.9419                 1.0379
 Frc consts  --      8.5495                44.7069                 5.6739
 IR Inten    --     19.4721               286.4626                 0.1540

                     37                     38                     39
                      A                      A                      A
 Frequencies --   3109.7598              3144.9233              3196.6217
 Red. masses --      1.1008                 1.1020                 1.0908
 Frc consts  --      6.2719                 6.4220                 6.5673
 IR Inten    --      1.1169                 3.0638                 0.0554

                     40                     41                     42
                      A                      A                      A
 Frequencies --   3204.1486              3211.6121              3224.2683
 Red. masses --      1.0940                 1.0924                 1.0987
 Frc consts  --      6.6176                 6.6385                 6.7298
 IR Inten    --      4.0560                 2.5746                 8.2510

 - Thermochemistry -
 -------------------
 Temperature   298.150 Kelvin.  Pressure   1.00000 Atm.
 Atom     1 has atomic number  6 and mass  12.00000

 Molecular mass:   119.06092 amu.
 Principal axes and moments of inertia in atomic units:
                           1         2         3
     Eigenvalues --   556.552981479.357902024.60566
           X            0.99914  -0.04154   0.00000
           Y            0.04154   0.99914  -0.00003
           Z           -0.00000   0.00003   1.00000
 This molecule is an asymmetric top.
 Rotational symmetry number  1.
 Warning -- assumption of classical behavior for rotation
           may cause significant error
 Rotational temperatures (Kelvin)      0.15563     0.05855     0.04278
 Rotational constants (GHZ):           3.24271     1.21995     0.89140
    1 imaginary frequencies ignored.
 Zero-point vibrational energy     329608.8 (Joules/Mol)
                                   78.77840 (Kcal/Mol)
 Warning -- explicit consideration of  10 degrees of freedom as
           vibrations may cause significant error
 Vibrational temperatures:    200.01   224.52   297.36   491.19   564.37
          (Kelvin)            659.36   661.53   743.81   809.68   821.99
                              948.55  1028.79  1132.83  1247.11  1305.66
                             1362.56  1445.14  1462.49  1473.89  1524.02
                             1595.94  1622.53  1718.65  1776.53  1901.89
                             1978.08  2021.23  2061.85  2099.60  2124.96
                             2153.73  2289.10  2329.39  3356.56  4382.60
                             4474.25  4524.84  4599.23  4610.06  4620.79
                             4639.00

 Zero-point correction=                           0.125541 (Hartree/Particle)
 Thermal correction to Energy=                    0.132735
 Thermal correction to Enthalpy=                  0.133679
 Thermal correction to Gibbs Free Energy=         0.093797
 Sum of electronic and zero-point Energies=           -380.080640
 Sum of electronic and thermal Energies=              -380.073447
 Sum of electronic and thermal Enthalpies=            -380.072503
 Sum of electronic and thermal Free Energies=         -380.112385

                     E (Thermal)             CV                S
                      KCal/Mol        Cal/Mol-Kelvin    Cal/Mol-Kelvin
 Total                   83.292             27.762             83.938
 Electronic               0.000              0.000              0.000
 Translational            0.889              2.981             40.238
 Rotational               0.889              2.981             28.901
 Vibrational             81.515             21.800             14.799
 Vibration     1          0.615              1.914              2.817
 Vibration     2          0.620              1.896              2.597
 Vibration     3          0.641              1.830              2.073
 Vibration     4          0.721              1.593              1.206
 Vibration     5          0.760              1.487              0.992
 Vibration     6          0.816              1.343              0.771
 Vibration     7          0.818              1.339              0.767
 Vibration     8          0.872              1.212              0.617
 Vibration     9          0.918              1.112              0.518
 Vibration    10          0.927              1.093              0.502

                           ! Non-Optimized Parameters !
 Normal termination of Gaussian 16 at Sun Aug  9 16:10:16 2020.
