 Gaussian 16, Revision A.03,
 Gaussian 16:  ES64L-G16RevA.03 25-Dec-2016

 ----------------------------------------------------------------------
 #p opt=(maxcycles=777) freq ub3lyp/aug-cc-pVDZ pop=(Bonding,AllOrbital
 s,mk,no,nboread)
 ----------------------------------------------------------------------

 -----------------------------
 3-MeOPhN2+_UB3LYP-aug-cc-pVDZ
 -----------------------------
 Symbolic Z-matrix:
 Charge =  1 Multiplicity = 1

 SCF Done:  E(UB3LYP) =  -455.423863023     A.U. after   18 cycles
 Optimization completed.
    -- Stationary point found.
 Normal termination of Gaussian 16 at Sun Aug  9 00:02:19 2020.

 ----------------------------------------------------------------------
 #P Geom=AllCheck Guess=TCheck SCRF=Check GenChk UB3LYP/Aug-CC-pVDZ Fre
 q
 ----------------------------------------------------------------------

 Structure from the checkpoint file:  "3-MeOPhN2+_UB3LYP-aug-cc-pVDZ-Opt.chk"
 -----------------------------
 3-MeOPhN2+_UB3LYP-aug-cc-pVDZ
 -----------------------------
 Charge =  1 Multiplicity = 1

                         Standard orientation:
 ---------------------------------------------------------------------
 Center     Atomic      Atomic             Coordinates (Angstroms)
 Number     Number       Type             X           Y           Z
 ---------------------------------------------------------------------
      1          6           0       -1.305611    1.396919    0.000061
      2          6           0       -0.035642    1.960980   -0.000009
      3          6           0       -1.350241   -0.012751    0.000001
      4          6           0        1.116859    1.163991   -0.000159
      5          6           0       -0.229330   -0.856900   -0.000189
      6          6           0        1.035130   -0.247699   -0.000269
      7          7           0       -2.597570   -0.613512    0.000111
      8          7           0       -3.604790   -1.088592    0.000151
      9          1           0        0.065007    3.045380    0.000061
     10          1           0        2.088518    1.652421   -0.000219
     11          1           0       -0.319769   -1.941250   -0.000229
     12          1           0       -2.213472    1.995609    0.000181
     13          8           0        2.079030   -1.082659   -0.000309
     14          6           0        3.419110   -0.547098    0.000421
     15          1           0        3.594229    0.049912    0.905381
     16          1           0        4.073330   -1.421357    0.000301
     17          1           0        3.594789    0.050632   -0.903959
 ---------------------------------------------------------------------

 SCF Done:  E(UB3LYP) =  -455.423863023     A.U. after    1 cycles

 Mulliken charges and spin densities:
               1          2
     1  C    0.615045   0.000000
     2  C    0.820813  -0.000000
     3  C    1.065894  -0.000000
     4  C    0.893027   0.000000
     5  C    0.611439  -0.000000
     6  C    0.930448   0.000000
     7  N    0.439354   0.000000
     8  N   -0.683295   0.000000
     9  H   -0.728639  -0.000000
    10  H   -1.087040  -0.000000
    11  H   -0.816627   0.000000
    12  H   -0.750134  -0.000000
    13  O   -0.635865   0.000000
    14  C    1.196580   0.000000
    15  H   -0.176933   0.000000
    16  H   -0.517079   0.000000
    17  H   -0.176988   0.000000
 Sum of Mulliken charges =   1.00000   0.00000

 Dipole moment (field-independent basis, Debye):
    X=             -2.0356    Y=              1.0891    Z=              0.0009  Tot=              2.3087
 Quadrupole moment (field-independent basis, Debye-Ang):
   XX=            -20.5715   YY=            -43.7864   ZZ=            -56.9692
   XY=              2.6268   XZ=              0.0017   YZ=             -0.0007

  Exact polarizability: 154.552   9.748 104.188  -0.002   0.001  54.960
 Approx polarizability: 259.713  33.235 193.830  -0.010   0.003  84.910

 ESP charges:
               1
     1  C   -0.203379
     2  C   -0.037149
     3  C    0.008282
     4  C   -0.182764
     5  C   -0.327103
     6  C    0.506022
     7  N    0.522685
     8  N   -0.015731
     9  H    0.178281
    10  H    0.162399
    11  H    0.223606
    12  H    0.202917
    13  O   -0.304161
    14  C   -0.060264
    15  H    0.091658
    16  H    0.143053
    17  H    0.091649
 Sum of ESP charges =   1.00000

 Summary of Natural Population Analysis:

                                       Natural Population
                Natural  -----------------------------------------------
    Atom  No    Charge         Core      Valence    Rydberg      Total
 -----------------------------------------------------------------------
      C    1   -0.09556      0.99944     2.08720    0.00891     3.09556
      C    2   -0.09206      0.99951     2.08394    0.00861     3.09206
      C    3    0.01413      0.99937     1.97510    0.01140     2.98587
      C    4   -0.10332      0.99946     2.09618    0.00768     3.10332
      C    5   -0.09853      0.99941     2.08891    0.01021     3.09853
      C    6    0.18038      0.99938     1.80773    0.01252     2.81962
      N    7    0.06888      0.99963     2.41470    0.01678     3.43112
      N    8    0.14686      0.99982     2.33753    0.01579     3.35314
      H    9    0.13609      0.00000     0.36194    0.00197     0.36391
      H   10    0.13303      0.00000     0.36441    0.00257     0.36697
      H   11    0.14074      0.00000     0.35679    0.00247     0.35926
      H   12    0.13659      0.00000     0.36110    0.00231     0.36341
      O   13   -0.26245      0.99985     3.24940    0.01321     4.26245
      C   14   -0.13439      0.99966     2.12802    0.00670     3.13439
      H   15    0.10414      0.00000     0.39469    0.00117     0.39586
      H   16    0.12135      0.00000     0.37767    0.00098     0.37865
      H   17    0.10413      0.00000     0.39470    0.00117     0.39587
 =======================================================================
   * Total *    0.50000      9.99554    24.88000    0.12445    35.00000

                      1                      2                      3
                      A                      A                      A
 Frequencies --     90.3858               144.6716               152.5939
 Red. masses --      3.5674                 7.6831                 4.5647
 Frc consts  --      0.0172                 0.0947                 0.0626
 IR Inten    --      4.3896                 0.0603                 0.6050

                      4                      5                      6
                      A                      A                      A
 Frequencies --    197.7360               254.8444               255.6383
 Red. masses --      1.8322                 3.3747                 1.6195
 Frc consts  --      0.0422                 0.1291                 0.0624
 IR Inten    --      1.0267                 3.3962                 0.8024

                      7                      8                      9
                      A                      A                      A
 Frequencies --    403.3801               410.4023               462.8962
 Red. masses --      4.0021                 6.2511                 7.4662
 Frc consts  --      0.3837                 0.6203                 0.9426
 IR Inten    --      0.0163                 0.0345                10.3105

                     10                     11                     12
                      A                      A                      A
 Frequencies --    486.7267               530.2010               597.0265
 Red. masses --      4.3602                 6.8472                 6.3203
 Frc consts  --      0.6086                 1.1341                 1.3273
 IR Inten    --      5.3248                 2.8882                 1.7420

                     13                     14                     15
                      A                      A                      A
 Frequencies --    601.7008               660.9078               716.2276
 Red. masses --      5.3028                 2.0829                 7.0094
 Frc consts  --      1.1311                 0.5360                 2.1185
 IR Inten    --      5.3588                18.4635                 5.9238

                     16                     17                     18
                      A                      A                      A
 Frequencies --    774.7549               872.3808               897.7975
 Red. masses --      1.3340                 1.7282                 5.1314
 Frc consts  --      0.4718                 0.7749                 2.4369
 IR Inten    --     30.2153                32.1111                22.8676

                     19                     20                     21
                      A                      A                      A
 Frequencies --    917.6951               994.3056              1007.5402
 Red. masses --      1.3593                 5.6424                 1.3595
 Frc consts  --      0.6745                 3.2866                 0.8131
 IR Inten    --      0.0003                 2.7484                 0.0002

                     22                     23                     24
                      A                      A                      A
 Frequencies --   1044.6218              1104.2958              1115.5747
 Red. masses --      3.9568                 2.1516                 1.7828
 Frc consts  --      2.5440                 1.5459                 1.3072
 IR Inten    --     57.8988                44.1753                 3.1039

                     25                     26                     27
                      A                      A                      A
 Frequencies --   1153.9630              1188.0956              1202.8750
 Red. masses --      1.2652                 1.2880                 1.2005
 Frc consts  --      0.9926                 1.0712                 1.0234
 IR Inten    --      0.9841                 3.0325                14.4956

                     28                     29                     30
                      A                      A                      A
 Frequencies --   1288.6454              1320.6102              1386.2305
 Red. masses --      2.0942                 1.8938                 6.0253
 Frc consts  --      2.0489                 1.9460                 6.8218
 IR Inten    --    190.6955               181.0314                25.4954

                     31                     32                     33
                      A                      A                      A
 Frequencies --   1448.6305              1452.8812              1473.0156
 Red. masses --      1.3151                 2.1322                 1.1305
 Frc consts  --      1.6260                 2.6518                 1.4452
 IR Inten    --     29.3068                11.4455                13.9455

                     34                     35                     36
                      A                      A                      A
 Frequencies --   1477.2640              1507.6241              1584.3979
 Red. masses --      1.0446                 2.8522                 5.5605
 Frc consts  --      1.3431                 3.8196                 8.2242
 IR Inten    --     13.3436               119.7454                76.6296

                     37                     38                     39
                      A                      A                      A
 Frequencies --   1621.3545              2338.3879              3038.7469
 Red. masses --      5.5174                13.9491                 1.0332
 Frc consts  --      8.5455                44.9396                 5.6210
 IR Inten    --    125.4783               287.4905                17.9004

                     40                     41                     42
                      A                      A                      A
 Frequencies --   3123.1471              3187.0551              3208.9686
 Red. masses --      1.1086                 1.1027                 1.0904
 Frc consts  --      6.3711                 6.5989                 6.6154
 IR Inten    --     11.6100                 1.8475                 1.2935

                     43                     44                     45
                      A                      A                      A
 Frequencies --   3222.8853              3228.4728              3231.6795
 Red. masses --      1.0945                 1.0927                 1.0976
 Frc consts  --      6.6981                 6.7106                 6.7537
 IR Inten    --     12.0602                 4.7110                 9.6737

 - Thermochemistry -
 -------------------
 Temperature   298.150 Kelvin.  Pressure   1.00000 Atm.
 Atom     1 has atomic number  6 and mass  12.00000

 Molecular mass:   135.05584 amu.
 Principal axes and moments of inertia in atomic units:
                           1         2         3
     Eigenvalues --   582.182662177.360812747.76130
           X            0.99993  -0.01184   0.00001
           Y            0.01184   0.99993  -0.00000
           Z           -0.00001   0.00000   1.00000
 This molecule is an asymmetric top.
 Rotational symmetry number  1.
 Warning -- assumption of classical behavior for rotation
           may cause significant error
 Rotational temperatures (Kelvin)      0.14877     0.03978     0.03152
 Rotational constants (GHZ):           3.09996     0.82887     0.65680
 Zero-point vibrational energy     343204.0 (Joules/Mol)
                                   82.02774 (Kcal/Mol)
 Warning -- explicit consideration of  13 degrees of freedom as
           vibrations may cause significant error
 Vibrational temperatures:    130.04   208.15   219.55   284.50   366.66
          (Kelvin)            367.81   580.37   590.48   666.00   700.29
                              762.84   858.99   865.71   950.90  1030.49
                             1114.70  1255.16  1291.73  1320.36  1430.58
                             1449.63  1502.98  1588.84  1605.06  1660.30
                             1709.40  1730.67  1854.07  1900.06  1994.48
                             2084.26  2090.37  2119.34  2125.45  2169.13
                             2279.60  2332.77  3364.42  4372.08  4493.51
                             4585.46  4616.99  4637.01  4645.05  4649.67

 Zero-point correction=                           0.130720 (Hartree/Particle)
 Thermal correction to Energy=                    0.139493
 Thermal correction to Enthalpy=                  0.140437
 Thermal correction to Gibbs Free Energy=         0.096911
 Sum of electronic and zero-point Energies=           -455.293144
 Sum of electronic and thermal Energies=              -455.284370
 Sum of electronic and thermal Enthalpies=            -455.283426
 Sum of electronic and thermal Free Energies=         -455.326952

                     E (Thermal)             CV                S
                      KCal/Mol        Cal/Mol-Kelvin    Cal/Mol-Kelvin
 Total                   87.533             32.969             91.608
 Electronic               0.000              0.000              0.000
 Translational            0.889              2.981             40.614
 Rotational               0.889              2.981             29.634
 Vibrational             85.756             27.007             21.361
 Vibration     1          0.602              1.956              3.652
 Vibration     2          0.616              1.908              2.741
 Vibration     3          0.619              1.900              2.640
 Vibration     4          0.637              1.843              2.154
 Vibration     5          0.665              1.755              1.697
 Vibration     6          0.666              1.753              1.691
 Vibration     7          0.769              1.463              0.950
 Vibration     8          0.775              1.448              0.925
 Vibration     9          0.821              1.332              0.758
 Vibration    10          0.843              1.279              0.692
 Vibration    11          0.885              1.183              0.587
 Vibration    12          0.955              1.038              0.455
 Vibration    13          0.960              1.028              0.447

 Optimization completed.
    -- Stationary point found.
 Normal termination of Gaussian 16 at Sun Aug  9 00:26:48 2020.
