 Gaussian 16, Revision A.03,
 Gaussian 16:  ES64L-G16RevA.03 25-Dec-2016

 ----------------------------------------------------------------------
 #p opt=(maxcycles=777) freq ub3lyp/aug-cc-pVDZ pop=(Bonding,AllOrbital
 s,mk,no,nboread)
 ----------------------------------------------------------------------

 -----------------------------
 3-NH2PhN2+_UB3LYP-aug-cc-pVDZ
 -----------------------------
 Symbolic Z-matrix:
 Charge =  1 Multiplicity = 1

 SCF Done:  E(UB3LYP) =  -396.259644965     A.U. after   18 cycles
 Optimization completed.
    -- Stationary point found.
 Normal termination of Gaussian 16 at Sun Aug  9 02:03:33 2020.

 ----------------------------------------------------------------------
 #P Geom=AllCheck Guess=TCheck SCRF=Check GenChk UB3LYP/Aug-CC-pVDZ Fre
 q
 ----------------------------------------------------------------------

 Structure from the checkpoint file:  "3-NH2PhN2+_UB3LYP-aug-cc-pVDZ-Opt.chk"
 -----------------------------
 3-NH2PhN2+_UB3LYP-aug-cc-pVDZ
 -----------------------------
 Charge =  1 Multiplicity = 1

                         Standard orientation:
 ---------------------------------------------------------------------
 Center     Atomic      Atomic             Coordinates (Angstroms)
 Number     Number       Type             X           Y           Z
 ---------------------------------------------------------------------
      1          6           0        0.714929    1.423898   -0.000041
      2          6           0       -0.614690    1.846009   -0.000011
      3          6           0        0.907508    0.030358   -0.000011
      4          6           0       -1.662361    0.928610    0.000049
      5          6           0       -0.113862   -0.937351    0.000009
      6          6           0       -1.444172   -0.478680   -0.000011
      7          7           0        2.213508   -0.424673    0.000009
      8          7           0        3.268358   -0.783983    0.000019
      9          1           0       -0.835530    2.912499    0.000039
     10          1           0       -2.688391    1.298291    0.000139
     11          1           0        0.126717   -1.998601    0.000099
     12          1           0        1.552740    2.116748   -0.000111
     13          7           0       -2.492873   -1.342439   -0.000061
     14          1           0       -3.443812   -1.006549    0.000189
     15          1           0       -2.358783   -2.341790   -0.000001
 ---------------------------------------------------------------------

 SCF Done:  E(UB3LYP) =  -396.259644965     A.U. after    1 cycles

 Mulliken charges and spin densities:
               1          2
     1  C    0.535457   0.000000
     2  C    0.627042   0.000000
     3  C    0.904028  -0.000000
     4  C    0.975421  -0.000000
     5  C    0.899351  -0.000000
     6  C    0.533498  -0.000000
     7  N    0.436969  -0.000000
     8  N   -0.683079   0.000000
     9  H   -0.708523  -0.000000
    10  H   -0.860346   0.000000
    11  H   -0.882110   0.000000
    12  H   -0.747083  -0.000000
    13  N    0.154498  -0.000000
    14  H   -0.087471  -0.000000
    15  H   -0.097653  -0.000000
 Sum of Mulliken charges =   1.00000  -0.00000

 Dipole moment (field-independent basis, Debye):
    X=             -0.0148    Y=             -0.8162    Z=              0.0005  Tot=              0.8163
 Quadrupole moment (field-independent basis, Debye-Ang):
   XX=            -21.2652   YY=            -33.4916   ZZ=            -52.8743
   XY=              2.1347   XZ=             -0.0019   YZ=             -0.0007

  Exact polarizability: 142.604  -5.026 101.677  -0.000   0.000  48.172
 Approx polarizability: 267.154 -27.088 188.050   0.000   0.001  74.258

 ESP charges:
               1
     1  C   -0.165697
     2  C   -0.043289
     3  C   -0.046693
     4  C   -0.200654
     5  C   -0.295981
     6  C    0.553953
     7  N    0.516142
     8  N   -0.019058
     9  H    0.174181
    10  H    0.184442
    11  H    0.210666
    12  H    0.194398
    13  N   -0.955273
    14  H    0.444765
    15  H    0.448099
 Sum of ESP charges =   1.00000

 Summary of Natural Population Analysis:

                                       Natural Population
                Natural  -----------------------------------------------
    Atom  No    Charge         Core      Valence    Rydberg      Total
 -----------------------------------------------------------------------
      C    1   -0.09703      0.99944     2.08850    0.00908     3.09703
      C    2   -0.09518      0.99950     2.08707    0.00860     3.09518
      C    3    0.01806      0.99938     1.97097    0.01160     2.98194
      C    4   -0.08232      0.99947     2.07466    0.00818     3.08232
      C    5   -0.11487      0.99941     2.10628    0.00917     3.11487
      C    6    0.09839      0.99948     1.89214    0.01000     2.90161
      N    7    0.06803      0.99963     2.41546    0.01688     3.43197
      N    8    0.14222      0.99982     2.34204    0.01592     3.35778
      H    9    0.13587      0.00000     0.36208    0.00205     0.36413
      H   10    0.12903      0.00000     0.36874    0.00224     0.37097
      H   11    0.13229      0.00000     0.36553    0.00217     0.36771
      H   12    0.13585      0.00000     0.36181    0.00234     0.36415
      N   13   -0.40289      0.99968     2.89567    0.00753     3.90289
      H   14    0.21687      0.00000     0.28070    0.00244     0.28313
      H   15    0.21569      0.00000     0.28197    0.00234     0.28431
 =======================================================================
   * Total *    0.50000      8.99582    21.89363    0.11055    31.00000

                      1                      2                      3
                      A                      A                      A
 Frequencies --    136.8988               158.6597               187.4421
 Red. masses --      6.0732                 7.3607                 2.8826
 Frc consts  --      0.0671                 0.1092                 0.0597
 IR Inten    --      0.1889                 0.3317                83.9782

                      4                      5                      6
                      A                      A                      A
 Frequencies --    218.8575               375.0141               394.6485
 Red. masses --      1.3523                 3.1850                 3.8547
 Frc consts  --      0.0382                 0.2639                 0.3537
 IR Inten    --    110.1061                 4.0337                 0.0585

                      7                      8                      9
                      A                      A                      A
 Frequencies --    434.5856               457.2837               486.7187
 Red. masses --      1.0266                 8.3619                 4.0530
 Frc consts  --      0.1142                 1.0302                 0.5657
 IR Inten    --      0.0030                 8.3897                16.6247

                     10                     11                     12
                      A                      A                      A
 Frequencies --    526.4675               569.6071               587.8517
 Red. masses --      6.3106                 6.5152                 5.6789
 Frc consts  --      1.0305                 1.2455                 1.1562
 IR Inten    --      0.0832                 0.2655                 0.0662

                     13                     14                     15
                      A                      A                      A
 Frequencies --    656.4570               725.7794               769.5324
 Red. masses --      1.9571                 7.0448                 1.3246
 Frc consts  --      0.4969                 2.1864                 0.4622
 IR Inten    --     26.2197                 1.0125                20.6604

                     16                     17                     18
                      A                      A                      A
 Frequencies --    847.3564               914.7691               943.6694
 Red. masses --      1.8191                 1.3911                 3.1376
 Frc consts  --      0.7696                 0.6858                 1.6462
 IR Inten    --     29.4432                 0.2034                 7.0118

                     19                     20                     21
                      A                      A                      A
 Frequencies --    992.4530              1010.1573              1052.5078
 Red. masses --      6.0444                 1.3746                 1.5699
 Frc consts  --      3.5077                 0.8264                 1.0246
 IR Inten    --      9.8311                 0.0039                 1.6903

                     22                     23                     24
                      A                      A                      A
 Frequencies --   1115.5264              1122.2676              1198.9431
 Red. masses --      1.8184                 1.7645                 1.1310
 Frc consts  --      1.3332                 1.3094                 0.9579
 IR Inten    --     77.9535                 5.8914                 6.7460

                     25                     26                     27
                      A                      A                      A
 Frequencies --   1317.0478              1355.0685              1399.2179
 Red. masses --      1.4782                 2.1057                 5.6218
 Frc consts  --      1.5107                 2.2780                 6.4848
 IR Inten    --     37.8178                85.6792                38.7534

                     28                     29                     30
                      A                      A                      A
 Frequencies --   1467.3995              1517.2957              1575.0600
 Red. masses --      2.9391                 3.1282                 5.4615
 Frc consts  --      3.7287                 4.2432                 7.9828
 IR Inten    --      0.8640                88.4441                41.5362

                     31                     32                     33
                      A                      A                      A
 Frequencies --   1630.6298              1667.9530              2330.7027
 Red. masses --      2.9854                 1.4700                13.9446
 Frc consts  --      4.6770                 2.4095                44.6304
 IR Inten    --     64.6652               283.8662               333.3467

                     34                     35                     36
                      A                      A                      A
 Frequencies --   3191.7037              3212.6014              3213.2263
 Red. masses --      1.0908                 1.0934                 1.0935
 Frc consts  --      6.5469                 6.6487                 6.6521
 IR Inten    --      0.9003                 4.5283                 1.4267

                     37                     38                     39
                      A                      A                      A
 Frequencies --   3232.8543              3600.2645              3721.4488
 Red. masses --      1.0972                 1.0470                 1.1057
 Frc consts  --      6.7561                 7.9961                 9.0225
 IR Inten    --     13.1917               170.5108                60.1990

 - Thermochemistry -
 -------------------
 Temperature   298.150 Kelvin.  Pressure   1.00000 Atm.
 Atom     1 has atomic number  6 and mass  12.00000

 Molecular mass:   120.05617 amu.
 Principal axes and moments of inertia in atomic units:
                           1         2         3
     Eigenvalues --   537.210221470.418452007.62867
           X            0.99974   0.02293  -0.00000
           Y           -0.02293   0.99974  -0.00000
           Z            0.00000   0.00000   1.00000
 This molecule is an asymmetric top.
 Rotational symmetry number  1.
 Warning -- assumption of classical behavior for rotation
           may cause significant error
 Rotational temperatures (Kelvin)      0.16123     0.05890     0.04314
 Rotational constants (GHZ):           3.35947     1.22737     0.89894
 Zero-point vibrational energy     300956.1 (Joules/Mol)
                                   71.93023 (Kcal/Mol)
 Warning -- explicit consideration of  12 degrees of freedom as
           vibrations may cause significant error
 Vibrational temperatures:    196.97   228.28   269.69   314.89   539.56
          (Kelvin)            567.81   625.27   657.93   700.28   757.47
                              819.54   845.79   944.50  1044.23  1107.19
                             1219.16  1316.15  1357.73  1427.92  1453.39
                             1514.32  1604.99  1614.69  1725.01  1894.94
                             1949.64  2013.16  2111.26  2183.05  2266.16
                             2346.11  2399.81  3353.36  4592.15  4622.22
                             4623.12  4651.36  5179.98  5354.33

 Zero-point correction=                           0.114628 (Hartree/Particle)
 Thermal correction to Energy=                    0.122532
 Thermal correction to Enthalpy=                  0.123477
 Thermal correction to Gibbs Free Energy=         0.082380
 Sum of electronic and zero-point Energies=           -396.145017
 Sum of electronic and thermal Energies=              -396.137112
 Sum of electronic and thermal Enthalpies=            -396.136168
 Sum of electronic and thermal Free Energies=         -396.177265

                     E (Thermal)             CV                S
                      KCal/Mol        Cal/Mol-Kelvin    Cal/Mol-Kelvin
 Total                   76.890             30.189             86.495
 Electronic               0.000              0.000              0.000
 Translational            0.889              2.981             40.263
 Rotational               0.889              2.981             28.852
 Vibrational             75.113             24.228             17.380
 Vibration     1          0.614              1.916              2.847
 Vibration     2          0.621              1.893              2.566
 Vibration     3          0.632              1.857              2.253
 Vibration     4          0.647              1.812              1.969
 Vibration     5          0.746              1.523              1.059
 Vibration     6          0.762              1.482              0.983
 Vibration     7          0.795              1.395              0.844
 Vibration     8          0.815              1.345              0.774
 Vibration     9          0.843              1.279              0.692
 Vibration    10          0.881              1.191              0.595
 Vibration    11          0.926              1.097              0.505
 Vibration    12          0.945              1.058              0.471

 Optimization completed.
    -- Stationary point found.
 Normal termination of Gaussian 16 at Sun Aug  9 02:21:15 2020.
