 Gaussian 16, Revision A.03,
 Gaussian 16:  ES64L-G16RevA.03 25-Dec-2016

 ----------------------------------------------------------------------
 #p opt=(maxcycles=777) freq ub3lyp/aug-cc-pVDZ pop=(Bonding,AllOrbital
 s,mk,no,nboread)
 ----------------------------------------------------------------------

 -----------------------------
 4-CHOPhN2+_UB3LYP-aug-cc-pVDZ
 -----------------------------
 Symbolic Z-matrix:
 Charge =  1 Multiplicity = 1

 SCF Done:  E(UB3LYP) =  -454.209554016     A.U. after   17 cycles
 Optimization completed.
    -- Stationary point found.
 Normal termination of Gaussian 16 at Sat Aug  8 23:51:49 2020.

 ----------------------------------------------------------------------
 #P Geom=AllCheck Guess=TCheck SCRF=Check GenChk UB3LYP/Aug-CC-pVDZ Fre
 q
 ----------------------------------------------------------------------

 Structure from the checkpoint file:  "4-CHOPhN2+_UB3LYP-aug-cc-pVDZ-Opt.chk"
 -----------------------------
 4-CHOPhN2+_UB3LYP-aug-cc-pVDZ
 -----------------------------
 Charge =  1 Multiplicity = 1

                         Standard orientation:
 ---------------------------------------------------------------------
 Center     Atomic      Atomic             Coordinates (Angstroms)
 Number     Number       Type             X           Y           Z
 ---------------------------------------------------------------------
      1          6           0       -0.855069    1.286941    0.000001
      2          6           0        0.531001    1.384790    0.000001
      3          6           0       -1.399039   -0.013209   -0.000009
      4          6           0        1.326591    0.226110    0.000001
      5          6           0       -0.632899   -1.200109   -0.000009
      6          6           0        0.745441   -1.056950   -0.000009
      7          7           0       -2.778539   -0.135239   -0.000009
      8          7           0       -3.887339   -0.237879   -0.000009
      9          1           0        0.998611    2.369750    0.000011
     10          1           0       -1.113040   -2.177469   -0.000009
     11          1           0        1.397250   -1.930280   -0.000009
     12          1           0       -1.497639    2.165911    0.000001
     13          6           0        2.831261    0.345030    0.000001
     14          8           0        3.544211   -0.628790    0.000031
     15          1           0        3.238561    1.378620    0.000041
 ---------------------------------------------------------------------

 SCF Done:  E(UB3LYP) =  -454.209554016     A.U. after    1 cycles

 Mulliken charges and spin densities:
               1          2
     1  C    0.567178  -0.000000
     2  C    0.763311   0.000000
     3  C    0.666280   0.000000
     4  C    1.316561  -0.000000
     5  C    0.672769  -0.000000
     6  C    0.789555  -0.000000
     7  N    0.473754  -0.000000
     8  N   -0.737018  -0.000000
     9  H   -0.901134  -0.000000
    10  H   -0.766132   0.000000
    11  H   -0.924257   0.000000
    12  H   -0.770657   0.000000
    13  C    0.813101  -0.000000
    14  O   -0.462712  -0.000000
    15  H   -0.500600  -0.000000
 Sum of Mulliken charges =   1.00000   0.00000

 Dipole moment (field-independent basis, Debye):
    X=             -6.1413    Y=              1.6818    Z=             -0.0000  Tot=              6.3674
 Quadrupole moment (field-independent basis, Debye-Ang):
   XX=            -35.0012   YY=            -41.1741   ZZ=            -55.1352
   XY=              6.5467   XZ=             -0.0000   YZ=              0.0001

  Exact polarizability: 165.586   1.797  91.709   0.001   0.000  48.885
 Approx polarizability: 299.586  -0.492 163.476   0.001   0.000  77.029

 ESP charges:
               1
     1  C   -0.091133
     2  C   -0.137390
     3  C    0.076875
     4  C    0.105702
     5  C   -0.167952
     6  C    0.005315
     7  N    0.388186
     8  N    0.045566
     9  H    0.166221
    10  H    0.206603
    11  H    0.144258
    12  H    0.190397
    13  C    0.339228
    14  O   -0.336916
    15  H    0.065041
 Sum of ESP charges =   1.00000

 Summary of Natural Population Analysis:

                                       Natural Population
                Natural  -----------------------------------------------
    Atom  No    Charge         Core      Valence    Rydberg      Total
 -----------------------------------------------------------------------
      C    1   -0.07428      0.99945     2.06593    0.00890     3.07428
      C    2   -0.08830      0.99946     2.08059    0.00825     3.08830
      C    3    0.01156      0.99937     1.97770    0.01136     2.98844
      C    4   -0.03226      0.99945     2.02393    0.00889     3.03226
      C    5   -0.07636      0.99945     2.06803    0.00888     3.07636
      C    6   -0.07945      0.99945     2.07057    0.00943     3.07945
      N    7    0.06633      0.99963     2.41743    0.01661     3.43367
      N    8    0.15363      0.99982     2.33087    0.01568     3.34637
      H    9    0.13717      0.00000     0.36066    0.00216     0.36283
      H   10    0.13891      0.00000     0.35885    0.00225     0.36109
      H   11    0.14614      0.00000     0.35111    0.00274     0.35386
      H   12    0.13860      0.00000     0.35915    0.00226     0.36140
      C   13    0.20923      0.99966     1.77472    0.01640     2.79077
      O   14   -0.23476      0.99989     3.22008    0.01479     4.23476
      H   15    0.08386      0.00000     0.41369    0.00245     0.41614
 =======================================================================
   * Total *    0.50000      9.99563    23.87331    0.13105    34.00000

                      1                      2                      3
                      A                      A                      A
 Frequencies --     73.7564               135.4251               145.0507
 Red. masses --      9.4197                 3.7201                 9.9714
 Frc consts  --      0.0302                 0.0402                 0.1236
 IR Inten    --      3.7883                 6.0351                 4.5613

                      4                      5                      6
                      A                      A                      A
 Frequencies --    232.7478               257.6896               367.5924
 Red. masses --      6.3925                 3.8524                 8.6644
 Frc consts  --      0.2040                 0.1507                 0.6898
 IR Inten    --      9.8374                 3.4264                 1.6480

                      7                      8                      9
                      A                      A                      A
 Frequencies --    400.1991               455.4647               533.3378
 Red. masses --      2.8307                 3.6285                 8.8550
 Frc consts  --      0.2671                 0.4435                 1.4840
 IR Inten    --      0.0336                 7.0389                 0.5019

                     10                     11                     12
                      A                      A                      A
 Frequencies --    548.7903               571.7621               641.7516
 Red. masses --      5.2199                 6.8769                 7.5124
 Frc consts  --      0.9262                 1.3246                 1.8229
 IR Inten    --     13.9491                 0.2560                 2.3319

                     13                     14                     15
                      A                      A                      A
 Frequencies --    718.9741               734.9137               828.8838
 Red. masses --      3.1519                 5.5036                 1.2736
 Frc consts  --      0.9599                 1.7513                 0.5155
 IR Inten    --      0.1622                50.4653                 9.0066

                     16                     17                     18
                      A                      A                      A
 Frequencies --    838.4304               841.2121               988.3313
 Red. masses --      1.3674                 5.4902                 1.3841
 Frc consts  --      0.5663                 2.2890                 0.7966
 IR Inten    --     43.2378                37.4919                 0.7692

                     19                     20                     21
                      A                      A                      A
 Frequencies --   1010.9548              1017.1021              1036.1592
 Red. masses --      1.3943                 2.8120                 1.8208
 Frc consts  --      0.8396                 1.7139                 1.1518
 IR Inten    --      0.2366                 1.1545                 4.3817

                     22                     23                     24
                      A                      A                      A
 Frequencies --   1121.1813              1131.8235              1178.8718
 Red. masses --      3.6108                 1.3233                 1.7163
 Frc consts  --      2.6742                 0.9988                 1.4053
 IR Inten    --    145.9140                 3.2968                32.8343

                     25                     26                     27
                      A                      A                      A
 Frequencies --   1207.3539              1314.8463              1363.3424
 Red. masses --      1.9446                 1.3114                 3.4989
 Frc consts  --      1.6701                 1.3358                 3.8317
 IR Inten    --      6.3444                 7.6797                24.8185

                     28                     29                     30
                      A                      A                      A
 Frequencies --   1398.7727              1444.5647              1483.3641
 Red. masses --      1.6866                 2.7799                 2.1024
 Frc consts  --      1.9442                 3.4179                 2.7256
 IR Inten    --     26.6104                22.6527                19.0670

                     31                     32                     33
                      A                      A                      A
 Frequencies --   1592.3356              1620.3498              1783.6635
 Red. masses --      6.8799                 5.4996                10.3736
 Frc consts  --     10.2779                 8.5074                19.4450
 IR Inten    --      3.8181                79.4926               133.7262

                     34                     35                     36
                      A                      A                      A
 Frequencies --   2338.5655              2969.1852              3195.8590
 Red. masses --     13.9428                 1.0891                 1.0916
 Frc consts  --     44.9261                 5.6569                 6.5687
 IR Inten    --    301.2898                48.1003                 2.3169

                     37                     38                     39
                      A                      A                      A
 Frequencies --   3206.6946              3217.3530              3218.2402
 Red. masses --      1.0906                 1.0967                 1.0983
 Frc consts  --      6.6075                 6.6888                 6.7021
 IR Inten    --     10.6181                18.3424                 2.2311

 - Thermochemistry -
 -------------------
 Temperature   298.150 Kelvin.  Pressure   1.00000 Atm.
 Atom     1 has atomic number  6 and mass  12.00000

 Molecular mass:   133.04019 amu.
 Principal axes and moments of inertia in atomic units:
                           1         2         3
     Eigenvalues --   370.626622507.116812877.74343
           X            0.99998   0.00554  -0.00000
           Y           -0.00554   0.99998  -0.00000
           Z            0.00000   0.00000   1.00000
 This molecule is an asymmetric top.
 Rotational symmetry number  1.
 Rotational temperatures (Kelvin)      0.23370     0.03455     0.03010
 Rotational constants (GHZ):           4.86943     0.71985     0.62714
 Zero-point vibrational energy     282108.7 (Joules/Mol)
                                   67.42560 (Kcal/Mol)
 Warning -- explicit consideration of  11 degrees of freedom as
           vibrations may cause significant error
 Vibrational temperatures:    106.12   194.85   208.70   334.87   370.76
          (Kelvin)            528.88   575.80   655.31   767.35   789.59
                              822.64   923.34  1034.44  1057.38  1192.58
                             1206.31  1210.32  1421.99  1454.54  1463.38
                             1490.80  1613.13  1628.44  1696.13  1737.11
                             1891.77  1961.55  2012.52  2078.41  2134.23
                             2291.02  2331.32  2566.29  3364.67  4272.00
                             4598.13  4613.72  4629.05  4630.33

 Zero-point correction=                           0.107450 (Hartree/Particle)
 Thermal correction to Energy=                    0.115669
 Thermal correction to Enthalpy=                  0.116613
 Thermal correction to Gibbs Free Energy=         0.073981
 Sum of electronic and zero-point Energies=           -454.102104
 Sum of electronic and thermal Energies=              -454.093885
 Sum of electronic and thermal Enthalpies=            -454.092941
 Sum of electronic and thermal Free Energies=         -454.135573

                     E (Thermal)             CV                S
                      KCal/Mol        Cal/Mol-Kelvin    Cal/Mol-Kelvin
 Total                   72.583             30.404             89.726
 Electronic               0.000              0.000              0.000
 Translational            0.889              2.981             40.569
 Rotational               0.889              2.981             29.371
 Vibrational             70.806             24.442             19.786
 Vibration     1          0.599              1.966              4.051
 Vibration     2          0.613              1.918              2.868
 Vibration     3          0.616              1.908              2.736
 Vibration     4          0.653              1.791              1.858
 Vibration     5          0.667              1.750              1.677
 Vibration     6          0.740              1.539              1.090
 Vibration     7          0.766              1.470              0.962
 Vibration     8          0.814              1.349              0.779
 Vibration     9          0.888              1.176              0.580
 Vibration    10          0.904              1.142              0.547
 Vibration    11          0.928              1.092              0.501

 Optimization completed.
    -- Stationary point found.
 Normal termination of Gaussian 16 at Sun Aug  9 00:11:46 2020.
