 Gaussian 16, Revision A.03,
 Gaussian 16:  ES64L-G16RevA.03 25-Dec-2016

 ----------------------------------------------------------------------
 #p opt=(maxcycles=777) freq ub3lyp/aug-cc-pVDZ pop=(Bonding,AllOrbital
 s,mk,no,nboread)
 ----------------------------------------------------------------------

 ----------------------------
 4-CNPhN2+_UB3LYP-aug-cc-pVDZ
 ----------------------------
 Symbolic Z-matrix:
 Charge =  1 Multiplicity = 1

 SCF Done:  E(UB3LYP) =  -433.115193154     A.U. after   18 cycles
 Optimization completed.
    -- Stationary point found.
 Normal termination of Gaussian 16 at Sun Aug  9 02:07:25 2020.

 ----------------------------------------------------------------------
 #P Geom=AllCheck Guess=TCheck SCRF=Check GenChk UB3LYP/Aug-CC-pVDZ Fre
 q
 ----------------------------------------------------------------------

 Structure from the checkpoint file:  "4-CNPhN2+_UB3LYP-aug-cc-pVDZ-Opt.chk"
 ----------------------------
 4-CNPhN2+_UB3LYP-aug-cc-pVDZ
 ----------------------------
 Charge =  1 Multiplicity = 1

                         Standard orientation:
 ---------------------------------------------------------------------
 Center     Atomic      Atomic             Coordinates (Angstroms)
 Number     Number       Type             X           Y           Z
 ---------------------------------------------------------------------
      1          6           0        0.000000    1.246340    0.676030
      2          6           0        0.000000    1.230680   -0.709910
      3          6           0       -0.000000    0.000000    1.336140
      4          6           0        0.000000   -0.000000   -1.404020
      5          6           0       -0.000000   -1.246340    0.676030
      6          6           0       -0.000000   -1.230680   -0.709910
      7          7           0       -0.000000    0.000000    2.720240
      8          7           0       -0.000000    0.000000    3.834160
      9          1           0        0.000000    2.167320   -1.264660
     10          1           0        0.000000   -2.180420    1.235350
     11          1           0       -0.000000   -2.167320   -1.264660
     12          1           0        0.000000    2.180420    1.235350
     13          6           0        0.000000   -0.000000   -2.836210
     14          7           0        0.000000   -0.000000   -3.998730
 ---------------------------------------------------------------------

 SCF Done:  E(UB3LYP) =  -433.115193154     A.U. after    2 cycles

 Mulliken charges and spin densities:
               1          2
     1  C    0.732963  -0.000000
     2  C    0.678134  -0.000000
     3  C    0.593680   0.000000
     4  C    2.060787   0.000000
     5  C    0.732963  -0.000000
     6  C    0.678134  -0.000000
     7  N    0.469526  -0.000000
     8  N   -0.704283  -0.000000
     9  H   -0.863592  -0.000000
    10  H   -0.754689   0.000000
    11  H   -0.863592  -0.000000
    12  H   -0.754689   0.000000
    13  C   -0.966044  -0.000000
    14  N   -0.039297   0.000000
 Sum of Mulliken charges =   1.00000  -0.00000

 Dipole moment (field-independent basis, Debye):
    X=             -0.0000    Y=             -0.0000    Z=              7.3290  Tot=              7.3290
 Quadrupole moment (field-independent basis, Debye-Ang):
   XX=            -54.9435   YY=            -39.8059   ZZ=            -42.5890
   XY=             -0.0000   XZ=             -0.0000   YZ=              0.0000

  Exact polarizability:  49.472  -0.000  85.302   0.000   0.000 187.230
 Approx polarizability:  77.255   0.000 147.674   0.000  -0.000 361.251

 ESP charges:
               1
     1  C   -0.126006
     2  C   -0.107336
     3  C    0.063733
     4  C    0.194628
     5  C   -0.126006
     6  C   -0.107336
     7  N    0.418888
     8  N    0.035064
     9  H    0.192730
    10  H    0.203393
    11  H    0.192730
    12  H    0.203393
    13  C    0.247980
    14  N   -0.285854
 Sum of ESP charges =   1.00000

 Summary of Natural Population Analysis:

                                       Natural Population
                Natural  -----------------------------------------------
    Atom  No    Charge         Core      Valence    Rydberg      Total
 -----------------------------------------------------------------------
      C    1   -0.07422      0.99945     2.06603    0.00875     3.07422
      C    2   -0.07887      0.99947     2.07090    0.00849     3.07887
      C    3    0.01097      0.99937     1.97826    0.01140     2.98903
      C    4   -0.03212      0.99939     2.02437    0.00836     3.03212
      C    5   -0.07422      0.99945     2.06603    0.00875     3.07422
      C    6   -0.07887      0.99947     2.07090    0.00849     3.07887
      N    7    0.06471      0.99963     2.41909    0.01657     3.43529
      N    8    0.15556      0.99982     2.32898    0.01563     3.34444
      H    9    0.14353      0.00000     0.35444    0.00203     0.35647
      H   10    0.14081      0.00000     0.35692    0.00227     0.35919
      H   11    0.14353      0.00000     0.35444    0.00203     0.35647
      H   12    0.14081      0.00000     0.35692    0.00227     0.35919
      C   13    0.12604      0.99962     1.85751    0.01683     2.87396
      N   14   -0.08766      0.99981     2.57449    0.01337     3.58766
 =======================================================================
   * Total *    0.50000      9.99547    22.87927    0.12526    33.00000

                      1                      2                      3
                     B1                     B2                     B2
 Frequencies --     78.5871               127.9157               193.6885
 Red. masses --     10.4506                11.1948                 6.8305
 Frc consts  --      0.0380                 0.1079                 0.1510
 IR Inten    --      2.8027                 5.9402                 0.2587

                      4                      5                      6
                     B1                     B1                     A1
 Frequencies --    194.0313               362.2536               375.1883
 Red. masses --      8.2463                 7.0492                12.2755
 Frc consts  --      0.1829                 0.5450                 1.0181
 IR Inten    --      1.0244                 0.1221                 8.1803

                      7                      8                      9
                     A2                     B1                     B2
 Frequencies --    396.5522               523.6466               525.1048
 Red. masses --      2.8406                 8.0165                11.2765
 Frc consts  --      0.2632                 1.2951                 1.8320
 IR Inten    --      0.0000                 0.6007                 0.0050

                     10                     11                     12
                     B1                     B2                     A1
 Frequencies --    553.8986               554.2305               645.3531
 Red. masses --      3.2884                 6.4662                 6.8552
 Frc consts  --      0.5944                 1.1703                 1.6821
 IR Inten    --     25.2852                 0.0000                 1.5493

                     13                     14                     15
                     B2                     B1                     A1
 Frequencies --    655.5692               735.1705               816.5543
 Red. masses --      7.5833                 3.3534                 6.7536
 Frc consts  --      1.9202                 1.0679                 2.6531
 IR Inten    --      0.3943                 2.0684                 1.0567

                     16                     17                     18
                     A2                     B1                     B1
 Frequencies --    825.9214               859.9896               990.5542
 Red. masses --      1.2502                 1.6120                 1.3907
 Frc consts  --      0.5025                 0.7024                 0.8040
 IR Inten    --      0.0000                56.4880                 0.1937

                     19                     20                     21
                     A2                     A1                     A1
 Frequencies --    997.0873              1018.3110              1125.2692
 Red. masses --      1.3717                 2.9334                 3.5780
 Frc consts  --      0.8035                 1.7922                 2.6693
 IR Inten    --      0.0000                 0.0562               187.3006

                     22                     23                     24
                     B2                     A1                     A1
 Frequencies --   1140.6076              1203.1478              1226.6929
 Red. masses --      1.3093                 1.3416                 3.3468
 Frc consts  --      1.0036                 1.1442                 2.9672
 IR Inten    --      2.5976                 1.5313                11.8339

                     25                     26                     27
                     B2                     B2                     B2
 Frequencies --   1320.8520              1354.5469              1444.3354
 Red. masses --      1.3624                 6.5078                 3.1225
 Frc consts  --      1.4004                 7.0351                 3.8378
 IR Inten    --      2.2823                18.4682                31.4560

                     28                     29                     30
                     A1                     B2                     A1
 Frequencies --   1489.8204              1572.7156              1622.1742
 Red. masses --      2.1801                 6.9154                 5.4290
 Frc consts  --      2.8510                10.0778                 8.4171
 IR Inten    --      1.8101                 0.8615               237.2509

                     31                     32                     33
                     A1                     A1                     A1
 Frequencies --   2327.0851              2340.5223              3213.2345
 Red. masses --     13.1338                13.4186                 1.0921
 Frc consts  --     41.9051                43.3093                 6.6433
 IR Inten    --    337.3254                94.3406                 8.8357

                     34                     35                     36
                     B2                     B2                     A1
 Frequencies --   3213.9088              3224.1019              3225.3807
 Red. masses --      1.0910                 1.0979                 1.0993
 Frc consts  --      6.6396                 6.7243                 6.7381
 IR Inten    --      0.5581                31.0044                 0.1171

 - Thermochemistry -
 -------------------
 Temperature   298.150 Kelvin.  Pressure   1.00000 Atm.
 Atom     1 has atomic number  6 and mass  12.00000

 Molecular mass:   130.04052 amu.
 Principal axes and moments of inertia in atomic units:
                           1         2         3
     Eigenvalues --   330.971332515.289462846.26078
           X            0.00000  -0.00000   1.00000
           Y            0.00000   1.00000   0.00000
           Z            1.00000  -0.00000  -0.00000
 This molecule is an asymmetric top.
 Rotational symmetry number  2.
 Rotational temperatures (Kelvin)      0.26170     0.03443     0.03043
 Rotational constants (GHZ):           5.45286     0.71751     0.63407
 Zero-point vibrational energy     254051.0 (Joules/Mol)
                                   60.71964 (Kcal/Mol)
 Warning -- explicit consideration of  11 degrees of freedom as
           vibrations may cause significant error
 Vibrational temperatures:    113.07   184.04   278.67   279.17   521.20
          (Kelvin)            539.81   570.55   753.41   755.51   796.94
                              797.41   928.52   943.22  1057.75  1174.84
                             1188.32  1237.33  1425.19  1434.59  1465.12
                             1619.01  1641.08  1731.06  1764.94  1900.41
                             1948.89  2078.08  2143.52  2262.79  2333.95
                             3348.16  3367.49  4623.13  4624.10  4638.76
                             4640.60

 Zero-point correction=                           0.096763 (Hartree/Particle)
 Thermal correction to Energy=                    0.104776
 Thermal correction to Enthalpy=                  0.105720
 Thermal correction to Gibbs Free Energy=         0.064296
 Sum of electronic and zero-point Energies=           -433.018430
 Sum of electronic and thermal Energies=              -433.010417
 Sum of electronic and thermal Enthalpies=            -433.009473
 Sum of electronic and thermal Free Energies=         -433.050898

                     E (Thermal)             CV                S
                      KCal/Mol        Cal/Mol-Kelvin    Cal/Mol-Kelvin
 Total                   65.748             29.725             87.185
 Electronic               0.000              0.000              0.000
 Translational            0.889              2.981             40.501
 Rotational               0.889              2.981             27.873
 Vibrational             63.970             23.763             18.811
 Vibration     1          0.600              1.964              3.926
 Vibration     2          0.611              1.925              2.977
 Vibration     3          0.635              1.849              2.192
 Vibration     4          0.635              1.848              2.189
 Vibration     5          0.736              1.550              1.112
 Vibration     6          0.746              1.523              1.059
 Vibration     7          0.763              1.478              0.975
 Vibration     8          0.879              1.198              0.602
 Vibration     9          0.880              1.194              0.598
 Vibration    10          0.909              1.131              0.536
 Vibration    11          0.910              1.130              0.535

 Optimization completed.
    -- Stationary point found.
 Normal termination of Gaussian 16 at Sun Aug  9 02:17:06 2020.
