 Gaussian 16, Revision A.03,
 Gaussian 16:  ES64L-G16RevA.03 25-Dec-2016

 ----------------------------------------------------------------------
 #p opt=(maxcycles=777) freq ub3lyp/aug-cc-pVDZ pop=(Bonding,AllOrbital
 s,mk,no,nboread)
 ----------------------------------------------------------------------

 ---------------------------
 4-FPhN2+_UB3LYP-aug-cc-pVDZ
 ---------------------------
 Symbolic Z-matrix:
 Charge =  1 Multiplicity = 1

 SCF Done:  E(UB3LYP) =  -440.126931317     A.U. after   16 cycles
 Optimization completed.
    -- Stationary point found.
 Normal termination of Gaussian 16 at Sun Aug  9 02:34:28 2020.

 ----------------------------------------------------------------------
 #P Geom=AllCheck Guess=TCheck SCRF=Check GenChk UB3LYP/Aug-CC-pVDZ Fre
 q
 ----------------------------------------------------------------------

 Structure from the checkpoint file:  "4-FPhN2+_UB3LYP-aug-cc-pVDZ-Opt.chk"
 ---------------------------
 4-FPhN2+_UB3LYP-aug-cc-pVDZ
 ---------------------------
 Charge =  1 Multiplicity = 1

                         Standard orientation:
 ---------------------------------------------------------------------
 Center     Atomic      Atomic             Coordinates (Angstroms)
 Number     Number       Type             X           Y           Z
 ---------------------------------------------------------------------
      1          6           0        1.247690   -0.343618    0.000000
      2          6           0        1.236650    1.040282    0.000000
      3          6           0        0.000000   -1.008668    0.000000
      4          6           0        0.000000    1.703432    0.000000
      5          6           0       -1.247690   -0.343618    0.000000
      6          6           0       -1.236650    1.040282    0.000000
      7          7           0        0.000000   -2.385798    0.000000
      8          7           0        0.000000   -3.501238    0.000000
      9          1           0        2.160950    1.615872    0.000000
     10          1           0       -2.181270   -0.904178    0.000000
     11          1           0       -2.160950    1.615872    0.000000
     12          1           0        2.181270   -0.904168    0.000000
     13          9           0        0.000000    3.028592    0.000000
 ---------------------------------------------------------------------

 SCF Done:  E(UB3LYP) =  -440.126931317     A.U. after    1 cycles

 Mulliken charges and spin densities:
               1          2
     1  C    0.710888  -0.000000
     2  C    0.786660  -0.000000
     3  C    1.220385  -0.000000
     4  C    0.248571   0.000000
     5  C    0.710844   0.000000
     6  C    0.786679   0.000000
     7  N    0.418662   0.000000
     8  N   -0.676721  -0.000000
     9  H   -0.649660  -0.000000
    10  H   -0.716789  -0.000000
    11  H   -0.649656  -0.000000
    12  H   -0.716798  -0.000000
    13  F   -0.473066  -0.000000
 Sum of Mulliken charges =   1.00000  -0.00000

 Dipole moment (field-independent basis, Debye):
    X=              0.0000    Y=             -3.7095    Z=              0.0000  Tot=              3.7095
 Quadrupole moment (field-independent basis, Debye-Ang):
   XX=            -34.1364   YY=            -31.2576   ZZ=            -49.1535
   XY=              0.0000   XZ=              0.0000   YZ=              0.0000

  Exact polarizability:  77.901   0.000 133.449  -0.000  -0.000  42.346
 Approx polarizability: 130.356   0.000 266.315  -0.000  -0.000  65.427

 ESP charges:
               1
     1  C   -0.027390
     2  C   -0.233691
     3  C   -0.148390
     4  C    0.488305
     5  C   -0.021282
     6  C   -0.235428
     7  N    0.512601
     8  N   -0.007913
     9  H    0.217372
    10  H    0.191587
    11  H    0.216936
    12  H    0.193288
    13  F   -0.145995
 Sum of ESP charges =   1.00000

 Summary of Natural Population Analysis:

                                       Natural Population
                Natural  -----------------------------------------------
    Atom  No    Charge         Core      Valence    Rydberg      Total
 -----------------------------------------------------------------------
      C    1   -0.07072      0.99946     2.06250    0.00876     3.07072
      C    2   -0.12787      0.99944     2.11872    0.00971     3.12787
      C    3    0.00222      0.99937     1.98702    0.01138     2.99778
      C    4    0.26331      0.99924     1.72355    0.01390     2.73669
      C    5   -0.07072      0.99946     2.06250    0.00876     3.07072
      C    6   -0.12787      0.99944     2.11872    0.00971     3.12787
      N    7    0.06328      0.99963     2.42065    0.01644     3.43672
      N    8    0.14671      0.99982     2.33766    0.01581     3.35329
      H    9    0.14497      0.00000     0.35260    0.00244     0.35503
      H   10    0.13960      0.00000     0.35810    0.00230     0.36040
      H   11    0.14497      0.00000     0.35260    0.00244     0.35503
      H   12    0.13960      0.00000     0.35810    0.00230     0.36040
      F   13   -0.14749      0.99996     3.64198    0.00555     4.64749
 =======================================================================
   * Total *    0.50000      8.99583    21.89469    0.10947    31.00000

                      1                      2                      3
                     A"                     A'                     A"
 Frequencies --    106.7264               166.2105               264.5793
 Red. masses --     10.6805                 9.0273                 7.5201
 Frc consts  --      0.0717                 0.1469                 0.3102
 IR Inten    --      1.1684                 2.0742                 0.6283

                      4                      5                      6
                     A"                     A'                     A'
 Frequencies --    404.9208               407.6932               408.6736
 Red. masses --      2.9546                12.8218                 7.0939
 Frc consts  --      0.2854                 1.2556                 0.6981
 IR Inten    --      0.0000                15.7801                 4.1450

                      7                      8                      9
                     A"                     A'                     A"
 Frequencies --    486.7526               538.9792               542.2600
 Red. masses --      3.7795                 7.4771                 4.8677
 Frc consts  --      0.5276                 1.2798                 0.8433
 IR Inten    --      4.2324                 0.0345                15.5627

                     10                     11                     12
                     A'                     A'                     A"
 Frequencies --    646.3053               700.1760               716.6550
 Red. masses --      7.4869                 6.3911                 3.2616
 Frc consts  --      1.8426                 1.8460                 0.9870
 IR Inten    --      0.2886                 5.0146                 1.0876

                     13                     14                     15
                     A"                     A'                     A"
 Frequencies --    811.8316               848.7241               865.7846
 Red. masses --      1.2468                 6.7668                 1.6753
 Frc consts  --      0.4842                 2.8719                 0.7399
 IR Inten    --      0.0000                 4.7181                72.5863

                     16                     17                     18
                     A"                     A"                     A'
 Frequencies --    977.3787               983.0797              1009.4170
 Red. masses --      1.3732                 1.3482                 2.6138
 Frc consts  --      0.7729                 0.7677                 1.5691
 IR Inten    --      0.6581                 0.0000                 0.0060

                     19                     20                     21
                     A'                     A'                     A'
 Frequencies --   1129.1417              1138.1083              1182.4796
 Red. masses --      1.2248                 2.6277                 1.4335
 Frc consts  --      0.9200                 2.0054                 1.1810
 IR Inten    --      5.4600               183.2486                 0.1366

                     22                     23                     24
                     A'                     A'                     A'
 Frequencies --   1298.9347              1306.5047              1375.2819
 Red. masses --      3.9287                 1.2892                 8.4686
 Frc consts  --      3.9055                 1.2966                 9.4372
 IR Inten    --    185.4911                 2.8712                10.3054

                     25                     26                     27
                     A'                     A'                     A'
 Frequencies --   1462.5886              1498.4085              1595.4589
 Red. masses --      3.8841                 2.5491                 7.3342
 Frc consts  --      4.8954                 3.3721                10.9995
 IR Inten    --     17.2579                42.8993                 8.5568

                     28                     29                     30
                     A'                     A'                     A'
 Frequencies --   1617.8835              2325.9530              3213.3826
 Red. masses --      5.8321                13.9404                 1.0919
 Frc consts  --      8.9944                44.4352                 6.6429
 IR Inten    --    351.6321               302.6741                 8.0669

                     31                     32                     33
                     A'                     A'                     A'
 Frequencies --   3214.5099              3225.0332              3225.8060
 Red. masses --      1.0914                 1.0979                 1.0990
 Frc consts  --      6.6443                 6.7281                 6.7380
 IR Inten    --      0.7056                37.3455                 0.9279

 - Thermochemistry -
 -------------------
 Temperature   298.150 Kelvin.  Pressure   1.00000 Atm.
 Atom     1 has atomic number  6 and mass  12.00000

 Molecular mass:   123.03585 amu.
 Principal axes and moments of inertia in atomic units:
                           1         2         3
     Eigenvalues --   332.350561815.353852147.70441
           X            0.00000   1.00000   0.00000
           Y            1.00000  -0.00000   0.00000
           Z            0.00000  -0.00000   1.00000
 This molecule is an asymmetric top.
 Rotational symmetry number  1.
 Rotational temperatures (Kelvin)      0.26061     0.04771     0.04033
 Rotational constants (GHZ):           5.43023     0.99415     0.84031
 Zero-point vibrational energy     237432.6 (Joules/Mol)
                                   56.74774 (Kcal/Mol)
 Warning -- explicit consideration of   9 degrees of freedom as
           vibrations may cause significant error
 Vibrational temperatures:    153.56   239.14   380.67   582.59   586.58
          (Kelvin)            587.99   700.33   775.47   780.19   929.89
                             1007.40  1031.11  1168.04  1221.12  1245.67
                             1406.23  1414.43  1452.33  1624.58  1637.48
                             1701.32  1868.88  1879.77  1978.72  2104.34
                             2155.88  2295.51  2327.77  3346.53  4623.34
                             4624.96  4640.10  4641.22

 Zero-point correction=                           0.090433 (Hartree/Particle)
 Thermal correction to Energy=                    0.097384
 Thermal correction to Enthalpy=                  0.098328
 Thermal correction to Gibbs Free Energy=         0.058838
 Sum of electronic and zero-point Energies=           -440.036498
 Sum of electronic and thermal Energies=              -440.029547
 Sum of electronic and thermal Enthalpies=            -440.028603
 Sum of electronic and thermal Free Energies=         -440.068093

                     E (Thermal)             CV                S
                      KCal/Mol        Cal/Mol-Kelvin    Cal/Mol-Kelvin
 Total                   61.109             26.370             83.114
 Electronic               0.000              0.000              0.000
 Translational            0.889              2.981             40.336
 Rotational               0.889              2.981             28.651
 Vibrational             59.332             20.409             14.127
 Vibration     1          0.606              1.944              3.328
 Vibration     2          0.624              1.884              2.478
 Vibration     3          0.671              1.738              1.631
 Vibration     4          0.770              1.460              0.945
 Vibration     5          0.772              1.454              0.935
 Vibration     6          0.773              1.451              0.931
 Vibration     7          0.843              1.279              0.692
 Vibration     8          0.894              1.164              0.567
 Vibration     9          0.897              1.157              0.560

 Optimization completed.
    -- Stationary point found.
 Normal termination of Gaussian 16 at Sun Aug  9 02:44:02 2020.
