 Gaussian 16, Revision A.03,
 Gaussian 16:  ES64L-G16RevA.03 25-Dec-2016

 ----------------------------------------------------------------------
 #p opt=(maxcycles=777) freq ub3lyp/aug-cc-pVDZ pop=(Bonding,AllOrbital
 s,mk,no,nboread)
 ----------------------------------------------------------------------

 ----------------------------
 4-HOPHN2+_UB3LYP-aug-cc-pVDZ
 ----------------------------
 Symbolic Z-matrix:
 Charge =  1 Multiplicity = 1

 SCF Done:  E(UB3LYP) =  -416.128310191     A.U. after   17 cycles
 Optimization completed.
    -- Stationary point found.
 Normal termination of Gaussian 16 at Sun Aug  9 03:02:52 2020.

 ----------------------------------------------------------------------
 #P Geom=AllCheck Guess=TCheck SCRF=Check GenChk UB3LYP/Aug-CC-pVDZ Fre
 q
 ----------------------------------------------------------------------

 Structure from the checkpoint file:  "4-HOPHN2+_UB3LYP-aug-cc-pVDZ-Opt.chk"
 ----------------------------
 4-HOPHN2+_UB3LYP-aug-cc-pVDZ
 ----------------------------
 Charge =  1 Multiplicity = 1

                         Standard orientation:
 ---------------------------------------------------------------------
 Center     Atomic      Atomic             Coordinates (Angstroms)
 Number     Number       Type             X           Y           Z
 ---------------------------------------------------------------------
      1          6           0       -1.247250    0.355681    0.000000
      2          6           0       -1.237940   -1.020569   -0.000000
      3          6           0       -0.000000    1.031281    0.000000
      4          6           0       -0.005940   -1.721639   -0.000000
      5          6           0        1.242480    0.352331    0.000000
      6          6           0        1.228830   -1.026619   -0.000000
      7          7           0        0.003810    2.397711    0.000000
      8          7           0        0.003370    3.515931    0.000000
      9          1           0       -2.166360   -1.589099   -0.000000
     10          1           0        2.178900    0.907981    0.000000
     11          1           0        2.169540   -1.577559   -0.000000
     12          1           0       -2.181340    0.915141    0.000000
     13          8           0       -0.088981   -3.049329   -0.000000
     14          1           0        0.779769   -3.480119   -0.000000
 ---------------------------------------------------------------------

 SCF Done:  E(UB3LYP) =  -416.128310191     A.U. after    1 cycles

 Mulliken charges and spin densities:
               1          2
     1  C    0.820879   0.000000
     2  C    0.960470  -0.000000
     3  C    0.919074   0.000000
     4  C    0.390254   0.000000
     5  C    0.649182  -0.000000
     6  C    0.875012  -0.000000
     7  N    0.428570  -0.000000
     8  N   -0.687042  -0.000000
     9  H   -0.732402   0.000000
    10  H   -0.735692   0.000000
    11  H   -0.864834   0.000000
    12  H   -0.744758   0.000000
    13  O   -0.495465  -0.000000
    14  H    0.216752   0.000000
 Sum of Mulliken charges =   1.00000  -0.00000

 Dipole moment (field-independent basis, Debye):
    X=              1.3650    Y=              0.9337    Z=             -0.0000  Tot=              1.6538
 Quadrupole moment (field-independent basis, Debye-Ang):
   XX=            -35.5574   YY=            -24.2663   ZZ=            -50.9191
   XY=             -5.4586   XZ=              0.0000   YZ=             -0.0000

  Exact polarizability:  79.920  -1.667 153.869  -0.000  -0.000  44.754
 Approx polarizability: 131.098  -1.574 317.124  -0.000   0.000  69.143

 ESP charges:
               1
     1  C   -0.087220
     2  C   -0.183623
     3  C   -0.108994
     4  C    0.470832
     5  C   -0.031425
     6  C   -0.291056
     7  N    0.495815
     8  N   -0.034673
     9  H    0.209100
    10  H    0.190867
    11  H    0.201138
    12  H    0.198684
    13  O   -0.459954
    14  H    0.430508
 Sum of ESP charges =   1.00000

 Summary of Natural Population Analysis:

                                       Natural Population
                Natural  -----------------------------------------------
    Atom  No    Charge         Core      Valence    Rydberg      Total
 -----------------------------------------------------------------------
      C    1   -0.07262      0.99946     2.06433    0.00883     3.07262
      C    2   -0.12113      0.99944     2.11182    0.00986     3.12113
      C    3   -0.00267      0.99938     1.99165    0.01163     3.00267
      C    4    0.21536      0.99941     1.77370    0.01153     2.78464
      C    5   -0.06953      0.99946     2.06122    0.00885     3.06953
      C    6   -0.13718      0.99944     2.12864    0.00910     3.13718
      N    7    0.05904      0.99963     2.42502    0.01631     3.44096
      N    8    0.13248      0.99982     2.35166    0.01604     3.36752
      H    9    0.14181      0.00000     0.35581    0.00239     0.35819
      H   10    0.13761      0.00000     0.36006    0.00233     0.36239
      H   11    0.13420      0.00000     0.36348    0.00232     0.36580
      H   12    0.13777      0.00000     0.35991    0.00232     0.36223
      O   13   -0.31525      0.99986     3.30267    0.01273     4.31525
      H   14    0.26013      0.00000     0.23703    0.00284     0.23987
 =======================================================================
   * Total *    0.50000      8.99591    21.88700    0.11709    31.00000

                      1                      2                      3
                     A"                     A'                     A"
 Frequencies --    104.4176               165.8927               255.3477
 Red. masses --      7.9444                 8.2431                 6.3034
 Frc consts  --      0.0510                 0.1337                 0.2422
 IR Inten    --      0.0021                 1.0844                 0.0265

                      4                      5                      6
                     A"                     A'                     A'
 Frequencies --    402.9323               413.8275               414.9128
 Red. masses --      2.8226                 6.6916                 5.6314
 Frc consts  --      0.2700                 0.6752                 0.5712
 IR Inten    --      3.9003                18.9171                 0.2571

                      7                      8                      9
                     A"                     A"                     A"
 Frequencies --    488.2268               525.8675               535.3505
 Red. masses --      3.7056                 1.1290                 4.7401
 Frc consts  --      0.5204                 0.1839                 0.8004
 IR Inten    --      6.5128               104.6652                20.9603

                     10                     11                     12
                     A'                     A'                     A'
 Frequencies --    541.7565               650.4668               716.0621
 Red. masses --      7.4479                 7.2102                 6.0111
 Frc consts  --      1.2879                 1.7974                 1.8160
 IR Inten    --      0.4628                 1.3295                 4.1572

                     13                     14                     15
                     A"                     A"                     A'
 Frequencies --    724.1464               809.7060               848.1122
 Red. masses --      2.8943                 1.2604                 6.3279
 Frc consts  --      0.8942                 0.4869                 2.6817
 IR Inten    --      4.3201                 3.2818                 0.2965

                     16                     17                     18
                     A"                     A"                     A"
 Frequencies --    864.8251               977.0754               991.3184
 Red. masses --      1.8016                 1.3669                 1.3537
 Frc consts  --      0.7939                 0.7688                 0.7838
 IR Inten    --     60.2555                 0.0548                 0.1991

                     19                     20                     21
                     A'                     A'                     A'
 Frequencies --   1003.4480              1134.1393              1154.8761
 Red. masses --      2.7455                 1.3426                 2.0230
 Frc consts  --      1.6288                 1.0175                 1.5897
 IR Inten    --      2.9051                34.0758               293.7451

                     22                     23                     24
                     A'                     A'                     A'
 Frequencies --   1189.8460              1211.9607              1331.5388
 Red. masses --      1.2247                 1.6535                 1.3983
 Frc consts  --      1.0216                 1.4310                 1.4607
 IR Inten    --    104.8737                 3.9078                21.7599

                     25                     26                     27
                     A'                     A'                     A'
 Frequencies --   1352.2170              1403.3086              1494.6208
 Red. masses --      3.1336                 3.8834                 3.9623
 Frc consts  --      3.3759                 4.5058                 5.2151
 IR Inten    --    171.4225                60.6070                18.4098

                     28                     29                     30
                     A'                     A'                     A'
 Frequencies --   1515.5620              1587.0008              1632.0607
 Red. masses --      2.9407                 5.6984                 5.7167
 Frc consts  --      3.9797                 8.4559                 8.9715
 IR Inten    --     38.0371                50.5656               461.7502

                     31                     32                     33
                     A'                     A'                     A'
 Frequencies --   2305.0913              3195.6678              3212.4545
 Red. masses --     13.9253                 1.0917                 1.0909
 Frc consts  --     43.5943                 6.5688                 6.6328
 IR Inten    --    463.4103                 1.0230                 2.9531

                     34                     35                     36
                     A'                     A'                     A'
 Frequencies --   3217.6944              3224.0051              3760.8030
 Red. masses --      1.0970                 1.0985                 1.0668
 Frc consts  --      6.6916                 6.7274                 8.8901
 IR Inten    --      9.9416                10.8301               231.9930

 - Thermochemistry -
 -------------------
 Temperature   298.150 Kelvin.  Pressure   1.00000 Atm.
 Atom     1 has atomic number  6 and mass  12.00000

 Molecular mass:   121.04019 amu.
 Principal axes and moments of inertia in atomic units:
                           1         2         3
     Eigenvalues --   333.830331776.857952110.68828
           X            0.00497   0.99999   0.00000
           Y            0.99999  -0.00497   0.00000
           Z           -0.00000  -0.00000   1.00000
 This molecule is an asymmetric top.
 Rotational symmetry number  1.
 Rotational temperatures (Kelvin)      0.25945     0.04875     0.04104
 Rotational constants (GHZ):           5.40616     1.01569     0.85505
 Zero-point vibrational energy     271292.4 (Joules/Mol)
                                   64.84043 (Kcal/Mol)
 Warning -- explicit consideration of  10 degrees of freedom as
           vibrations may cause significant error
 Vibrational temperatures:    150.23   238.68   367.39   579.73   595.41
          (Kelvin)            596.97   702.45   756.61   770.25   779.47
                              935.88  1030.25  1041.89  1164.99  1220.24
                             1244.29  1405.79  1426.29  1443.74  1631.77
                             1661.61  1711.92  1743.74  1915.79  1945.54
                             2019.05  2150.43  2180.56  2283.34  2348.17
                             3316.51  4597.85  4622.01  4629.54  4638.62
                             5410.96

 Zero-point correction=                           0.103330 (Hartree/Particle)
 Thermal correction to Energy=                    0.110493
 Thermal correction to Enthalpy=                  0.111438
 Thermal correction to Gibbs Free Energy=         0.071672
 Sum of electronic and zero-point Energies=           -416.024980
 Sum of electronic and thermal Energies=              -416.017817
 Sum of electronic and thermal Enthalpies=            -416.016873
 Sum of electronic and thermal Free Energies=         -416.056638

                     E (Thermal)             CV                S
                      KCal/Mol        Cal/Mol-Kelvin    Cal/Mol-Kelvin
 Total                   69.336             27.630             83.694
 Electronic               0.000              0.000              0.000
 Translational            0.889              2.981             40.287
 Rotational               0.889              2.981             28.617
 Vibrational             67.558             21.669             14.790
 Vibration     1          0.605              1.946              3.370
 Vibration     2          0.624              1.884              2.482
 Vibration     3          0.666              1.754              1.693
 Vibration     4          0.768              1.464              0.952
 Vibration     5          0.777              1.440              0.913
 Vibration     6          0.778              1.438              0.909
 Vibration     7          0.844              1.276              0.688
 Vibration     8          0.881              1.193              0.597
 Vibration     9          0.890              1.172              0.575
 Vibration    10          0.897              1.158              0.562

 Optimization completed.
    -- Stationary point found.
 Normal termination of Gaussian 16 at Sun Aug  9 03:13:16 2020.
