 Gaussian 16, Revision A.03,
 Gaussian 16:  ES64L-G16RevA.03 25-Dec-2016

 ----------------------------------------------------------------------
 #p opt=(maxcycles=777) freq ub3lyp/aug-cc-pVDZ pop=(Bonding,AllOrbital
 s,mk,no,nboread)
 ----------------------------------------------------------------------

 ----------------------------
 4-MePhN2+_UB3LYP-aug-cc-pVDZ
 ----------------------------
 Symbolic Z-matrix:
 Charge =  1 Multiplicity = 1

 SCF Done:  E(UB3LYP) =  -380.209257556     A.U. after   16 cycles
 Optimization completed.
    -- Stationary point found.
 Normal termination of Gaussian 16 at Sun Aug  9 17:42:36 2020.

 ----------------------------------------------------------------------
 #P Geom=AllCheck Guess=TCheck SCRF=Check GenChk UB3LYP/Aug-CC-pVDZ Fre
 q
 ----------------------------------------------------------------------

 Structure from the checkpoint file:  "4-MePhN2+_UB3LYP-aug-cc-pVDZ-Opt.chk"
 ----------------------------
 4-MePhN2+_UB3LYP-aug-cc-pVDZ
 ----------------------------
 Charge =  1 Multiplicity = 1

                         Standard orientation:
 ---------------------------------------------------------------------
 Center     Atomic      Atomic             Coordinates (Angstroms)
 Number     Number       Type             X           Y           Z
 ---------------------------------------------------------------------
      1          6           0        0.397848   -1.243571   -0.003450
      2          6           0       -0.986082   -1.218850   -0.009990
      3          6           0        1.067709   -0.000001    0.000290
      4          6           0       -1.703131    0.000060   -0.010900
      5          6           0        0.397899    1.243579   -0.003440
      6          6           0       -0.986041    1.218930   -0.009990
      7          7           0        2.442649   -0.000021    0.004300
      8          7           0        3.558479   -0.000042    0.008540
      9          1           0       -1.529842   -2.162920   -0.016580
     10          1           0        0.955820    2.178569   -0.003570
     11          1           0       -1.529760    2.163020   -0.016600
     12          1           0        0.955738   -2.178581   -0.003580
     13          6           0       -3.201691   -0.000009    0.010550
     14          1           0       -3.612561   -0.893629   -0.474080
     15          1           0       -3.553651   -0.002879    1.055510
     16          1           0       -3.612711    0.896031   -0.469400
 ---------------------------------------------------------------------

 SCF Done:  E(UB3LYP) =  -380.209257556     A.U. after    1 cycles

 Mulliken charges and spin densities:
               1          2
     1  C    0.476754  -0.000000
     2  C    1.279205   0.000000
     3  C    0.745127  -0.000000
     4  C    0.123114   0.000000
     5  C    0.476704  -0.000000
     6  C    1.279697  -0.000000
     7  N    0.438545   0.000000
     8  N   -0.743333  -0.000000
     9  H   -0.911027  -0.000000
    10  H   -0.781455   0.000000
    11  H   -0.910919   0.000000
    12  H   -0.781515  -0.000000
    13  C    0.848856  -0.000000
    14  H   -0.246284   0.000000
    15  H   -0.045038  -0.000000
    16  H   -0.248429  -0.000000
 Sum of Mulliken charges =   1.00000  -0.00000

 Dipole moment (field-independent basis, Debye):
    X=              1.1787    Y=             -0.0005    Z=              0.0774  Tot=              1.1812
 Quadrupole moment (field-independent basis, Debye-Ang):
   XX=            -23.1286   YY=            -38.4273   ZZ=            -51.6592
   XY=              0.0020   XZ=             -0.2201   YZ=             -0.0000

  Exact polarizability: 161.334   0.005  86.954  -0.668  -0.000  51.929
 Approx polarizability: 295.787   0.013 147.086  -1.390  -0.000  81.054

 ESP charges:
               1
     1  C   -0.132244
     2  C   -0.146837
     3  C    0.035960
     4  C    0.349931
     5  C   -0.132554
     6  C   -0.146294
     7  N    0.417355
     8  N    0.004846
     9  H    0.167285
    10  H    0.197176
    11  H    0.167076
    12  H    0.197094
    13  C   -0.524561
    14  H    0.180721
    15  H    0.184335
    16  H    0.180711
 Sum of ESP charges =   1.00000

 Summary of Natural Population Analysis:

                                       Natural Population
                Natural  -----------------------------------------------
    Atom  No    Charge         Core      Valence    Rydberg      Total
 -----------------------------------------------------------------------
      C    1   -0.07342      0.99945     2.06519    0.00878     3.07342
      C    2   -0.10106      0.99944     2.09323    0.00838     3.10106
      C    3    0.00340      0.99937     1.98574    0.01149     2.99660
      C    4    0.04008      0.99949     1.95282    0.00761     2.95992
      C    5   -0.07340      0.99945     2.06517    0.00878     3.07340
      C    6   -0.10108      0.99944     2.09325    0.00838     3.10108
      N    7    0.06400      0.99963     2.41982    0.01655     3.43600
      N    8    0.13965      0.99982     2.34461    0.01592     3.36035
      H    9    0.13480      0.00000     0.36320    0.00200     0.36520
      H   10    0.13657      0.00000     0.36112    0.00230     0.36343
      H   11    0.13481      0.00000     0.36320    0.00200     0.36519
      H   12    0.13657      0.00000     0.36112    0.00230     0.36343
      C   13   -0.33566      0.99964     2.33002    0.00600     3.33566
      H   14    0.12877      0.00000     0.36975    0.00149     0.37123
      H   15    0.13724      0.00000     0.36148    0.00128     0.36276
      H   16    0.12872      0.00000     0.36979    0.00149     0.37128
 =======================================================================
   * Total *    0.50000      8.99574    21.89952    0.10474    31.00000

 ******    1 imaginary frequencies (negative Signs) ******

                      1                      2                      3
                      A                      A                      A
 Frequencies --    -56.7094                99.8643               162.5525
 Red. masses --      1.0364                 4.8575                 6.9525
 Frc consts  --      0.0020                 0.0285                 0.1082
 IR Inten    --      0.4400                 0.1364                 0.5225

                      4                      5                      6
                      A                      A                      A
 Frequencies --    243.4112               352.3837               395.6029
 Red. masses --      4.5899                 2.7147                 2.8577
 Frc consts  --      0.1602                 0.1986                 0.2635
 IR Inten    --      0.9328                 0.2394                 0.0016

                      7                      8                      9
                      A                      A                      A
 Frequencies --    411.4891               459.0951               543.2299
 Red. masses --      7.2276                 3.1403                 7.5525
 Frc consts  --      0.7210                 0.3900                 1.3131
 IR Inten    --      5.2123                 8.0300                 0.0094

                     10                     11                     12
                      A                      A                      A
 Frequencies --    543.2642               649.3512               690.5901
 Red. masses --      5.6316                 7.2371                 4.1797
 Frc consts  --      0.9793                 1.7979                 1.1744
 IR Inten    --     13.0329                 0.5390                 0.6168

                     13                     14                     15
                      A                      A                      A
 Frequencies --    703.3866               815.4809               820.8673
 Red. masses --      3.2117                 1.4780                 1.2543
 Frc consts  --      0.9362                 0.5791                 0.4980
 IR Inten    --      1.5969                38.8887                 0.0006

                     16                     17                     18
                      A                      A                      A
 Frequencies --    827.3964               978.3848               998.4465
 Red. masses --      4.1583                 1.3076                 1.3658
 Frc consts  --      1.6772                 0.7375                 0.8022
 IR Inten    --      6.7593                 5.6850                 0.0000

                     19                     20                     21
                      A                      A                      A
 Frequencies --   1009.1686              1018.5990              1041.4343
 Red. masses --      1.3948                 2.8328                 1.7684
 Frc consts  --      0.8370                 1.7317                 1.1300
 IR Inten    --      0.0536                 0.4372                30.9187

                     22                     23                     24
                      A                      A                      A
 Frequencies --   1141.7922              1149.2550              1213.9233
 Red. masses --      3.0030                 1.2502                 1.3254
 Frc consts  --      2.3067                 0.9729                 1.1507
 IR Inten    --    189.5850                 4.5184                 0.2518

                     25                     26                     27
                      A                      A                      A
 Frequencies --   1239.3117              1327.4101              1365.4326
 Red. masses --      3.2703                 1.2951                 5.0461
 Frc consts  --      2.9594                 1.3445                 5.5431
 IR Inten    --     20.5269                 0.7330                11.7478

                     28                     29                     30
                      A                      A                      A
 Frequencies --   1389.6625              1438.4442              1462.4826
 Red. masses --      1.1975                 1.4295                 1.0965
 Frc consts  --      1.3625                 1.7427                 1.3818
 IR Inten    --     21.0900                 0.0483                10.3664

                     31                     32                     33
                      A                      A                      A
 Frequencies --   1468.1696              1494.3433              1580.1635
 Red. masses --      2.0727                 2.1920                 5.8084
 Frc consts  --      2.6323                 2.8840                 8.5450
 IR Inten    --     31.4417                 0.7888                 0.1963

                     34                     35                     36
                      A                      A                      A
 Frequencies --   1619.5305              2321.2299              3027.7406
 Red. masses --      5.4168                13.9238                 1.0460
 Frc consts  --      8.3709                44.2023                 5.6499
 IR Inten    --    288.1269               397.0143                 9.4219

                     37                     38                     39
                      A                      A                      A
 Frequencies --   3101.9873              3145.0337              3201.2302
 Red. masses --      1.0875                 1.1050                 1.0903
 Frc consts  --      6.1654                 6.4399                 6.5831
 IR Inten    --      4.2076                 1.7360                 0.0084

                     40                     41                     42
                      A                      A                      A
 Frequencies --   3201.3912              3217.3999              3218.3582
 Red. masses --      1.0912                 1.0968                 1.0982
 Frc consts  --      6.5892                 6.6892                 6.7019
 IR Inten    --      0.9987                10.9437                 1.1416

 - Thermochemistry -
 -------------------
 Temperature   298.150 Kelvin.  Pressure   1.00000 Atm.
 Atom     1 has atomic number  6 and mass  12.00000

 Molecular mass:   119.06092 amu.
 Principal axes and moments of inertia in atomic units:
                           1         2         3
     Eigenvalues --   339.113041805.142452132.98187
           X            1.00000   0.00000  -0.00060
           Y           -0.00000   1.00000  -0.00000
           Z            0.00060   0.00000   1.00000
 This molecule is an asymmetric top.
 Rotational symmetry number  1.
 Rotational temperatures (Kelvin)      0.25541     0.04798     0.04061
 Rotational constants (GHZ):           5.32195     0.99978     0.84611
    1 imaginary frequencies ignored.
 Zero-point vibrational energy     329501.2 (Joules/Mol)
                                   78.75267 (Kcal/Mol)
 Warning -- explicit consideration of   9 degrees of freedom as
           vibrations may cause significant error
 Vibrational temperatures:    143.68   233.88   350.21   507.00   569.18
          (Kelvin)            592.04   660.54   781.59   781.64   934.27
                              993.61  1012.02  1173.30  1181.04  1190.44
                             1407.68  1436.54  1451.97  1465.54  1498.39
                             1642.78  1653.52  1746.56  1783.09  1909.85
                             1964.55  1999.41  2069.60  2104.19  2112.37
                             2150.03  2273.50  2330.14  3339.73  4356.24
                             4463.07  4525.00  4605.86  4606.09  4629.12
                             4630.50

 Zero-point correction=                           0.125500 (Hartree/Particle)
 Thermal correction to Energy=                    0.132686
 Thermal correction to Enthalpy=                  0.133630
 Thermal correction to Gibbs Free Energy=         0.093757
 Sum of electronic and zero-point Energies=           -380.083757
 Sum of electronic and thermal Energies=              -380.076571
 Sum of electronic and thermal Enthalpies=            -380.075627
 Sum of electronic and thermal Free Energies=         -380.115501

                     E (Thermal)             CV                S
                      KCal/Mol        Cal/Mol-Kelvin    Cal/Mol-Kelvin
 Total                   83.262             27.680             83.921
 Electronic               0.000              0.000              0.000
 Translational            0.889              2.981             40.238
 Rotational               0.889              2.981             28.659
 Vibrational             81.484             21.718             15.024
 Vibration     1          0.604              1.949              3.457
 Vibration     2          0.623              1.888              2.520
 Vibration     3          0.659              1.774              1.778
 Vibration     4          0.729              1.570              1.156
 Vibration     5          0.762              1.480              0.979
 Vibration     6          0.775              1.445              0.921
 Vibration     7          0.817              1.341              0.769
 Vibration     8          0.898              1.155              0.558
 Vibration     9          0.898              1.154              0.558

                           ! Non-Optimized Parameters !
 Normal termination of Gaussian 16 at Sun Aug  9 18:02:01 2020.
