 Gaussian 16, Revision A.03,
 Gaussian 16:  ES64L-G16RevA.03 25-Dec-2016

 ----------------------------------------------------------------------
 #p opt=(maxcycles=777) freq ub3lyp/aug-cc-pVDZ pop=(Bonding,AllOrbital
 s,mk,no,nboread)
 ----------------------------------------------------------------------

 ------------------------------
 4-MeCOPhN2+_UB3LYP-aug-cc-pVDZ
 ------------------------------
 Symbolic Z-matrix:
 Charge =  1 Multiplicity = 1

 SCF Done:  E(UB3LYP) =  -493.540844536     A.U. after   18 cycles
 Optimization completed.
    -- Stationary point found.
 Normal termination of Gaussian 16 at Sun Aug  9 03:38:01 2020.

 ----------------------------------------------------------------------
 #P Geom=AllCheck Guess=TCheck SCRF=Check GenChk UB3LYP/Aug-CC-pVDZ Fre
 q
 ----------------------------------------------------------------------

 Structure from the checkpoint file:  "4-MeCOPhN2+_UB3LYP-aug-cc-pVDZ-Opt.chk"
 ------------------------------
 4-MeCOPhN2+_UB3LYP-aug-cc-pVDZ
 ------------------------------
 Charge =  1 Multiplicity = 1

                         Standard orientation:
 ---------------------------------------------------------------------
 Center     Atomic      Atomic             Coordinates (Angstroms)
 Number     Number       Type             X           Y           Z
 ---------------------------------------------------------------------
      1          6           0        1.092979   -1.248490   -0.000020
      2          6           0       -0.295241   -1.189450   -0.000000
      3          6           0        1.785509   -0.021350   -0.000020
      4          6           0       -0.962191    0.050560    0.000030
      5          6           0        1.156659    1.242960   -0.000000
      6          6           0       -0.228531    1.254170    0.000030
      7          7           0        3.167669   -0.058350   -0.000040
      8          7           0        4.281419   -0.082159   -0.000060
      9          1           0       -0.856801   -2.121320   -0.000000
     10          1           0        1.742068    2.161070   -0.000000
     11          1           0       -0.777712    2.194790    0.000040
     12          1           0        1.629489   -2.195810   -0.000040
     13          6           0       -2.488111    0.162549    0.000050
     14          8           0       -2.968081    1.277469    0.000020
     15          6           0       -3.319751   -1.092581    0.000020
     16          1           0       -3.103171   -1.704801   -0.888420
     17          1           0       -3.103191   -1.704831    0.888440
     18          1           0       -4.377571   -0.815491    0.000010
 ---------------------------------------------------------------------

 SCF Done:  E(UB3LYP) =  -493.540844536     A.U. after    1 cycles

 Mulliken charges and spin densities:
               1          2
     1  C    0.532237   0.000000
     2  C    1.228163   0.000000
     3  C    0.556128   0.000000
     4  C    1.862438   0.000000
     5  C    0.568581  -0.000000
     6  C    0.607491  -0.000000
     7  N    0.488742  -0.000000
     8  N   -0.741340  -0.000000
     9  H   -1.099827  -0.000000
    10  H   -0.768040   0.000000
    11  H   -0.973363   0.000000
    12  H   -0.772068   0.000000
    13  C   -0.294879   0.000000
    14  O   -0.501143   0.000000
    15  C    0.772864   0.000000
    16  H   -0.031856   0.000000
    17  H   -0.031860   0.000000
    18  H   -0.402267  -0.000000
 Sum of Mulliken charges =   1.00000  -0.00000

 Dipole moment (field-independent basis, Debye):
    X=              6.3648    Y=             -2.5858    Z=             -0.0001  Tot=              6.8700
 Quadrupole moment (field-independent basis, Debye-Ang):
   XX=            -29.4940   YY=            -49.9898   ZZ=            -61.3092
   XY=              8.6245   XZ=             -0.0005   YZ=              0.0001

  Exact polarizability: 182.845  -1.252 103.817  -0.002   0.000  58.498
 Approx polarizability: 313.079 -13.297 184.377  -0.003   0.001  93.034

 ESP charges:
               1
     1  C   -0.160789
     2  C   -0.059467
     3  C    0.115490
     4  C    0.023155
     5  C   -0.191997
     6  C    0.022571
     7  N    0.386244
     8  N    0.035944
     9  H    0.143240
    10  H    0.205797
    11  H    0.142743
    12  H    0.198987
    13  C    0.488926
    14  O   -0.402608
    15  C   -0.313948
    16  H    0.110458
    17  H    0.110453
    18  H    0.144802
 Sum of ESP charges =   1.00000

 Summary of Natural Population Analysis:

                                       Natural Population
                Natural  -----------------------------------------------
    Atom  No    Charge         Core      Valence    Rydberg      Total
 -----------------------------------------------------------------------
      C    1   -0.07495      0.99945     2.06663    0.00887     3.07495
      C    2   -0.09279      0.99947     2.08541    0.00791     3.09279
      C    3    0.00996      0.99937     1.97917    0.01150     2.99004
      C    4   -0.01843      0.99942     2.00782    0.01119     3.01843
      C    5   -0.07640      0.99945     2.06813    0.00882     3.07640
      C    6   -0.08139      0.99946     2.07230    0.00963     3.08139
      N    7    0.06621      0.99963     2.41751    0.01664     3.43379
      N    8    0.14969      0.99982     2.33475    0.01574     3.35031
      H    9    0.13595      0.00000     0.36183    0.00223     0.36405
      H   10    0.13815      0.00000     0.35960    0.00226     0.36185
      H   11    0.14736      0.00000     0.34996    0.00268     0.35264
      H   12    0.13757      0.00000     0.36022    0.00221     0.36243
      C   13    0.28491      0.99961     1.69748    0.01800     2.71509
      O   14   -0.25196      0.99988     3.23782    0.01425     4.25196
      C   15   -0.36510      0.99964     2.35942    0.00604     3.36510
      H   16    0.12630      0.00000     0.37239    0.00132     0.37370
      H   17    0.12629      0.00000     0.37239    0.00132     0.37371
      H   18    0.13862      0.00000     0.35917    0.00221     0.36138
 =======================================================================
   * Total *    0.50000     10.99520    26.86199    0.14281    38.00000

                      1                      2                      3
                      A                      A                      A
 Frequencies --     43.9045                77.5829               137.7651
 Red. masses --      4.3191                 7.2679                 7.6595
 Frc consts  --      0.0049                 0.0258                 0.0857
 IR Inten    --      4.2959                 0.3602                 2.4919

                      4                      5                      6
                      A                      A                      A
 Frequencies --    170.8602               211.6691               228.0724
 Red. masses --      1.0280                 6.5958                 4.3923
 Frc consts  --      0.0177                 0.1741                 0.1346
 IR Inten    --      0.1779                 0.0007                 3.8340

                      7                      8                      9
                      A                      A                      A
 Frequencies --    314.2323               397.3290               414.3025
 Red. masses --      7.2728                 2.8184                 4.2395
 Frc consts  --      0.4231                 0.2622                 0.4287
 IR Inten    --      6.7834                 0.0078                 0.5122

                     10                     11                     12
                      A                      A                      A
 Frequencies --    434.6344               531.9534               543.1426
 Red. masses --      3.9634                 7.3675                 6.6195
 Frc consts  --      0.4411                 1.2283                 1.1505
 IR Inten    --      2.3928                 2.6801                 4.2763

                     13                     14                     15
                      A                      A                      A
 Frequencies --    557.8309               583.2794               639.2277
 Red. masses --      6.5997                 2.3589                 4.5239
 Frc consts  --      1.2100                 0.4728                 1.0891
 IR Inten    --      1.1137                17.7552                40.4571

                     16                     17                     18
                      A                      A                      A
 Frequencies --    644.1882               739.2612               798.7101
 Red. masses --      6.6101                 3.0527                 6.4195
 Frc consts  --      1.6162                 0.9829                 2.4129
 IR Inten    --      4.3175                 0.7601                 0.3611

                     19                     20                     21
                      A                      A                      A
 Frequencies --    826.4857               850.2163               965.0235
 Red. masses --      1.2693                 1.4243                 2.1048
 Frc consts  --      0.5108                 0.6066                 1.1549
 IR Inten    --      4.4598                49.0033                20.5391

                     22                     23                     24
                      A                      A                      A
 Frequencies --    992.3235              1016.7007              1019.0194
 Red. masses --      1.3817                 2.9399                 1.4126
 Frc consts  --      0.8016                 1.7905                 0.8642
 IR Inten    --      0.1038                 3.2375                 0.4946

                     25                     26                     27
                      A                      A                      A
 Frequencies --   1043.4672              1082.6704              1125.8587
 Red. masses --      1.8933                 2.6717                 3.4375
 Frc consts  --      1.2146                 1.8452                 2.5672
 IR Inten    --      0.0150                13.8928               157.6776

                     28                     29                     30
                      A                      A                      A
 Frequencies --   1136.7863              1200.4499              1247.2075
 Red. masses --      1.2780                 1.2725                 3.6196
 Frc consts  --      0.9730                 1.0804                 3.3173
 IR Inten    --      5.1883                28.3447               128.0292

                     31                     32                     33
                      A                      A                      A
 Frequencies --   1317.3889              1370.0326              1376.9365
 Red. masses --      1.2944                 3.5330                 1.7803
 Frc consts  --      1.3235                 3.9071                 1.9888
 IR Inten    --      2.0051                38.6157                28.5282

                     34                     35                     36
                      A                      A                      A
 Frequencies --   1438.7867              1440.1866              1451.1379
 Red. masses --      2.5207                 1.1603                 1.0458
 Frc consts  --      3.0745                 1.4180                 1.2975
 IR Inten    --     42.1607                 5.4052                14.0839

                     37                     38                     39
                      A                      A                      A
 Frequencies --   1482.2935              1585.7648              1615.7204
 Red. masses --      2.0753                 6.9209                 5.5646
 Frc consts  --      2.6865                10.2540                 8.5589
 IR Inten    --     17.5755                 5.4634               106.8322

                     40                     41                     42
                      A                      A                      A
 Frequencies --   1768.8235              2334.4837              3032.4886
 Red. masses --     11.2871                13.9416                 1.0394
 Frc consts  --     20.8067                44.7657                 5.6317
 IR Inten    --    117.8760               340.1917                 6.9839

                     43                     44                     45
                      A                      A                      A
 Frequencies --   3096.1304              3167.9877              3208.5601
 Red. masses --      1.0989                 1.1009                 1.0905
 Frc consts  --      6.2065                 6.5096                 6.6144
 IR Inten    --      1.3449                 0.7358                12.3227

                     46                     47                     48
                      A                      A                      A
 Frequencies --   3212.6683              3218.6779              3224.8537
 Red. masses --      1.0913                 1.0975                 1.0964
 Frc consts  --      6.6366                 6.6990                 6.7181
 IR Inten    --      3.0578                15.0891                 3.7620

 - Thermochemistry -
 -------------------
 Temperature   298.150 Kelvin.  Pressure   1.00000 Atm.
 Atom     1 has atomic number  6 and mass  12.00000

 Molecular mass:   147.05584 amu.
 Principal axes and moments of inertia in atomic units:
                           1         2         3
     Eigenvalues --   502.408003118.343953609.38905
           X            0.99980   0.01989   0.00001
           Y           -0.01989   0.99980  -0.00001
           Z           -0.00001   0.00001   1.00000
 This molecule is an asymmetric top.
 Rotational symmetry number  1.
 Warning -- assumption of classical behavior for rotation
           may cause significant error
 Rotational temperatures (Kelvin)      0.17240     0.02778     0.02400
 Rotational constants (GHZ):           3.59218     0.57875     0.50001
 Zero-point vibrational energy     354794.9 (Joules/Mol)
                                   84.79802 (Kcal/Mol)
 Warning -- explicit consideration of  14 degrees of freedom as
           vibrations may cause significant error
 Vibrational temperatures:     63.17   111.62   198.21   245.83   304.54
          (Kelvin)            328.15   452.11   571.67   596.09   625.34
                              765.36   781.46   802.59   839.21   919.71
                              926.84  1063.63  1149.17  1189.13  1223.27
                             1388.45  1427.73  1462.81  1466.14  1501.32
                             1557.72  1619.86  1635.58  1727.18  1794.45
                             1895.43  1971.17  1981.10  2070.09  2072.11
                             2087.86  2132.69  2281.56  2324.66  2544.94
                             3358.80  4363.07  4454.64  4558.03  4616.40
                             4622.31  4630.96  4639.85

 Zero-point correction=                           0.135134 (Hartree/Particle)
 Thermal correction to Energy=                    0.144894
 Thermal correction to Enthalpy=                  0.145838
 Thermal correction to Gibbs Free Energy=         0.099344
 Sum of electronic and zero-point Energies=           -493.405710
 Sum of electronic and thermal Energies=              -493.395951
 Sum of electronic and thermal Enthalpies=            -493.395007
 Sum of electronic and thermal Free Energies=         -493.441501

                     E (Thermal)             CV                S
                      KCal/Mol        Cal/Mol-Kelvin    Cal/Mol-Kelvin
 Total                   90.922             36.176             97.855
 Electronic               0.000              0.000              0.000
 Translational            0.889              2.981             40.868
 Rotational               0.889              2.981             30.115
 Vibrational             89.145             30.215             26.872
 Vibration     1          0.595              1.980              5.075
 Vibration     2          0.599              1.964              3.951
 Vibration     3          0.614              1.916              2.835
 Vibration     4          0.626              1.878              2.426
 Vibration     5          0.643              1.823              2.029
 Vibration     6          0.651              1.798              1.894
 Vibration     7          0.702              1.647              1.340
 Vibration     8          0.764              1.476              0.973
 Vibration     9          0.778              1.439              0.912
 Vibration    10          0.795              1.395              0.844
 Vibration    11          0.887              1.179              0.583
 Vibration    12          0.898              1.155              0.559
 Vibration    13          0.913              1.123              0.528
 Vibration    14          0.940              1.067              0.479

 Optimization completed.
    -- Stationary point found.
 Normal termination of Gaussian 16 at Sun Aug  9 04:09:51 2020.
