 Gaussian 16, Revision A.03,
 Gaussian 16:  ES64L-G16RevA.03 25-Dec-2016

 ----------------------------------------------------------------------
 #p opt=(maxcycles=777) freq ub3lyp/aug-cc-pVDZ pop=(Bonding,AllOrbital
 s,mk,no,nboread)
 ----------------------------------------------------------------------

 ----------------------------
 4-NO2C6H3_UB3LYP-aug-cc-pVDZ
 ----------------------------
 Symbolic Z-matrix:
 Charge =  0 Multiplicity = 1

 SCF Done:  E(UB3LYP) =  -435.471231892     A.U. after   15 cycles
 SCF Done:  E(UB3LYP) =  -435.471229392     A.U. after   11 cycles
 SCF Done:  E(UB3LYP) =  -435.471210962     A.U. after   12 cycles
 SCF Done:  E(UB3LYP) =  -435.471232873     A.U. after   11 cycles
 SCF Done:  E(UB3LYP) =  -435.471233958     A.U. after   10 cycles
 SCF Done:  E(UB3LYP) =  -435.471234092     A.U. after   10 cycles
 SCF Done:  E(UB3LYP) =  -435.471234159     A.U. after   10 cycles
 Optimization completed.
    -- Stationary point found.
 Normal termination of Gaussian 16 at Sat Nov  5 15:32:50 2016.

 ----------------------------------------------------------------------
 #P Geom=AllCheck Guess=TCheck SCRF=Check GenChk UB3LYP/Aug-CC-pVDZ Fre
 q
 ----------------------------------------------------------------------

 Structure from the checkpoint file:  "4-NO2C6H3_UB3LYP-aug-cc-pVDZ-Opt.chk"
 ----------------------------
 4-NO2C6H3_UB3LYP-aug-cc-pVDZ
 ----------------------------
 Charge =  0 Multiplicity = 1

                         Standard orientation:
 ---------------------------------------------------------------------
 Center     Atomic      Atomic             Coordinates (Angstroms)
 Number     Number       Type             X           Y           Z
 ---------------------------------------------------------------------
      1          6           0        2.488504   -0.226368    0.000006
      2          6           0        1.795888   -1.269582    0.000339
      3          6           0        0.416783   -1.358138    0.000299
      4          6           0       -0.131186   -0.052827    0.000008
      5          7           0       -1.606091    0.068733   -0.000028
      6          8           0       -2.259865   -0.970929   -0.000633
      7          8           0       -2.091659    1.196702    0.000605
      8          6           0        0.635355    1.131410   -0.000212
      9          6           0        2.043702    1.089221   -0.000331
     10          1           0       -0.209033   -2.245536    0.000382
     11          1           0        0.115014    2.086845   -0.000164
     12          1           0        2.654575    1.989080   -0.000433
 ---------------------------------------------------------------------

 SCF Done:  E(UB3LYP) =  -435.471234159     A.U. after    1 cycles

 Mulliken charges and spin densities:
               1          2
     1  C   -0.525682  -0.000000
     2  C   -0.552501   0.000000
     3  C    0.940224   0.000000
     4  C    0.723303   0.000000
     5  N    0.726106  -0.000000
     6  O   -0.677094   0.000000
     7  O   -0.676460   0.000000
     8  C    1.285826  -0.000000
     9  C    0.767256  -0.000000
    10  H   -0.609826  -0.000000
    11  H   -0.825863   0.000000
    12  H   -0.575289   0.000000
 Sum of Mulliken charges =  -0.00000  -0.00000

 Dipole moment (field-independent basis, Debye):
    X=              3.1949    Y=              0.6367    Z=             -0.0000  Tot=              3.2577
 Quadrupole moment (field-independent basis, Debye-Ang):
   XX=            -59.3352   YY=            -47.5178   ZZ=            -51.3924
   XY=              4.1495   XZ=             -0.0009   YZ=             -0.0036

  Exact polarizability: 111.798   3.996  97.708  -0.001  -0.002  47.219
 Approx polarizability: 188.033  22.290 212.316  -0.006  -0.002  72.268

 ESP charges:
               1
     1  C   -0.052967
     2  C   -0.023134
     3  C   -0.107482
     4  C    0.150263
     5  N    0.559636
     6  O   -0.381061
     7  O   -0.366984
     8  C   -0.244630
     9  C    0.012593
    10  H    0.160030
    11  H    0.169635
    12  H    0.124100
 Sum of ESP charges =   0.00000

 Summary of Natural Population Analysis:

                                       Natural Population
                Natural  -----------------------------------------------
    Atom  No    Charge         Core      Valence    Rydberg      Total
 -----------------------------------------------------------------------
      C    1    0.02919      0.99895     1.95840    0.01346     2.97081
      C    2    0.01570      0.99893     1.97180    0.01357     2.98430
      C    3   -0.11593      0.99938     2.10599    0.01056     3.11593
      C    4    0.03336      0.99937     1.95483    0.01244     2.96664
      N    5    0.24945      0.99967     2.22504    0.02583     3.25055
      O    6   -0.19132      0.99989     3.17950    0.01193     4.19132
      O    7   -0.19044      0.99989     3.17863    0.01192     4.19044
      C    8   -0.10146      0.99945     2.09336    0.00865     3.10146
      C    9   -0.12830      0.99943     2.11946    0.00941     3.12830
      H   10    0.13678      0.00000     0.36051    0.00272     0.36322
      H   11    0.13803      0.00000     0.35924    0.00272     0.36197
      H   12    0.12494      0.00000     0.37294    0.00211     0.37506
 =======================================================================
   * Total *   -0.00000      8.99496    21.87971    0.12533    31.00000

                      1                      2                      3
                      A                      A                      A
 Frequencies --     50.6463               188.2873               263.6139
 Red. masses --      8.8309                 7.6706                 7.4266
 Frc consts  --      0.0133                 0.1602                 0.3041
 IR Inten    --      0.1362                 4.1743                 0.9170

                      4                      5                      6
                      A                      A                      A
 Frequencies --    371.0220               390.5020               445.1385
 Red. masses --     11.3213                 2.7107                 9.5191
 Frc consts  --      0.9182                 0.2435                 1.1113
 IR Inten    --     41.5445                 4.6465                 0.0322

                      7                      8                      9
                      A                      A                      A
 Frequencies --    454.0748               522.5741               600.4299
 Red. masses --     11.0559                 7.9860                 3.9458
 Frc consts  --      1.3431                 1.2849                 0.8381
 IR Inten    --     63.2914                 9.4327                 1.1021

                     10                     11                     12
                      A                      A                      A
 Frequencies --    636.0411               755.0394               816.8425
 Red. masses --      7.4774                 3.3426                11.2818
 Frc consts  --      1.7823                 1.1227                 4.4351
 IR Inten    --      7.3425                39.4391                25.9280

                     13                     14                     15
                      A                      A                      A
 Frequencies --    844.2292               890.9987               921.6910
 Red. masses --      1.6709                 1.4130                 5.4839
 Frc consts  --      0.7016                 0.6609                 2.7448
 IR Inten    --     11.9714                 5.2479                19.1365

                     16                     17                     18
                      A                      A                      A
 Frequencies --    966.9643              1053.1009              1111.5591
 Red. masses --      1.3743                 1.9328                 2.2814
 Frc consts  --      0.7571                 1.2629                 1.6608
 IR Inten    --      2.4565                69.3676                 8.7216

                     19                     20                     21
                      A                      A                      A
 Frequencies --   1123.8047              1238.1421              1324.4138
 Red. masses --      2.1828                 1.3027                 2.6868
 Frc consts  --      1.6243                 1.1766                 2.7768
 IR Inten    --      0.2411                 1.7188                 7.5122

                     22                     23                     24
                      A                      A                      A
 Frequencies --   1376.0792              1391.6967              1465.2968
 Red. masses --     13.4002                 4.5840                 5.7136
 Frc consts  --     14.9503                 5.2310                 7.2278
 IR Inten    --    271.6238                 3.5720                 6.1147

                     25                     26                     27
                      A                      A                      A
 Frequencies --   1484.3918              1606.5451              2020.9624
 Red. masses --      3.7787                13.8414                11.3129
 Frc consts  --      4.9055                21.0483                27.2234
 IR Inten    --     20.7806               248.4140                 1.9031

                     28                     29                     30
                      A                      A                      A
 Frequencies --   3214.3010              3230.0088              3242.2102
 Red. masses --      1.0905                 1.0945                 1.0941
 Frc consts  --      6.6381                 6.7275                 6.7764
 IR Inten    --      7.4075                 2.5696                 2.7099

 - Thermochemistry -
 -------------------
 Temperature   298.150 Kelvin.  Pressure   1.00000 Atm.
 Atom     1 has atomic number  6 and mass  12.00000

 Molecular mass:   121.01638 amu.
 Principal axes and moments of inertia in atomic units:
                           1         2         3
     Eigenvalues --   439.444761304.545871743.99051
           X            0.99970   0.02469  -0.00000
           Y           -0.02469   0.99970  -0.00002
           Z            0.00000   0.00002   1.00000
 This molecule is an asymmetric top.
 Rotational symmetry number  1.
 Warning -- assumption of classical behavior for rotation
           may cause significant error
 Rotational temperatures (Kelvin)      0.19710     0.06639     0.04966
 Rotational constants (GHZ):           4.10687     1.38342     1.03483
 Zero-point vibrational energy     203368.8 (Joules/Mol)
                                   48.60631 (Kcal/Mol)
 Warning -- explicit consideration of   9 degrees of freedom as
           vibrations may cause significant error
 Vibrational temperatures:     72.87   270.90   379.28   533.82   561.85
          (Kelvin)            640.46   653.31   751.87   863.88   915.12
                             1086.33  1175.25  1214.66  1281.95  1326.11
                             1391.25  1515.18  1599.29  1616.90  1781.41
                             1905.54  1979.87  2002.34  2108.24  2135.71
                             2311.46  2907.71  4624.66  4647.26  4664.82

 Zero-point correction=                           0.077459 (Hartree/Particle)
 Thermal correction to Energy=                    0.084378
 Thermal correction to Enthalpy=                  0.085322
 Thermal correction to Gibbs Free Energy=         0.045513
 Sum of electronic and zero-point Energies=           -435.393775
 Sum of electronic and thermal Energies=              -435.386856
 Sum of electronic and thermal Enthalpies=            -435.385912
 Sum of electronic and thermal Free Energies=         -435.425722

                     E (Thermal)             CV                S
                      KCal/Mol        Cal/Mol-Kelvin    Cal/Mol-Kelvin
 Total                   52.948             25.418             83.787
 Electronic               0.000              0.000              0.000
 Translational            0.889              2.981             40.287
 Rotational               0.889              2.981             28.393
 Vibrational             51.171             19.457             15.107
 Vibration     1          0.595              1.977              4.792
 Vibration     2          0.633              1.856              2.245
 Vibration     3          0.670              1.740              1.638
 Vibration     4          0.743              1.532              1.076
 Vibration     5          0.758              1.490              0.998
 Vibration     6          0.805              1.372              0.811
 Vibration     7          0.813              1.352              0.784
 Vibration     8          0.878              1.200              0.604
 Vibration     9          0.959              1.031              0.449

 Optimization completed.
    -- Stationary point found.
 Normal termination of Gaussian 16 at Sat Nov  5 15:43:28 2016.
