 Gaussian 16, Revision A.03,
 Gaussian 16:  ES64L-G16RevA.03 25-Dec-2016

 ----------------------------------------------------------------------
 #p opt=(maxcycles=777) freq ub3lyp/aug-cc-pVDZ pop=(Bonding,AllOrbital
 s,mk,no,nboread)
 ----------------------------------------------------------------------

 -----------------------
 AcO-_UB3LYP-aug-cc-pVDZ
 -----------------------
 Symbolic Z-matrix:
 Charge = -1 Multiplicity = 1

 SCF Done:  E(UB3LYP) =  -228.562501520     A.U. after   13 cycles
 Optimization completed.
    -- Stationary point found.
 Normal termination of Gaussian 16 at Sat Aug  1 13:02:55 2020.

 ----------------------------------------------------------------------
 #P Geom=AllCheck Guess=TCheck SCRF=Check GenChk UB3LYP/Aug-CC-pVDZ Fre
 q
 ----------------------------------------------------------------------

 Structure from the checkpoint file:  "AcO-_UB3LYP-aug-cc-pVDZ-Opt.chk"
 -----------------------
 AcO-_UB3LYP-aug-cc-pVDZ
 -----------------------
 Charge = -1 Multiplicity = 1

                         Standard orientation:
 ---------------------------------------------------------------------
 Center     Atomic      Atomic             Coordinates (Angstroms)
 Number     Number       Type             X           Y           Z
 ---------------------------------------------------------------------
      1          6           0        1.352064   -0.045037   -0.000082
      2          1           0        1.724789   -1.079633   -0.005631
      3          1           0        1.736400    0.479841    0.889439
      4          1           0        1.737486    0.490362   -0.882789
      5          6           0       -0.207080    0.001130   -0.000184
      6          8           0       -0.799681   -1.112500    0.000037
      7          8           0       -0.708892    1.159109    0.000035
 ---------------------------------------------------------------------

 SCF Done:  E(UB3LYP) =  -228.562501520     A.U. after    1 cycles

 Mulliken charges and spin densities:
               1          2
     1  C    0.704919  -0.000000
     2  H   -0.308543  -0.000000
     3  H   -0.244617  -0.000000
     4  H   -0.245188  -0.000000
     5  C    0.526368   0.000000
     6  O   -0.690751  -0.000000
     7  O   -0.742188  -0.000000
 Sum of Mulliken charges =  -1.00000   0.00000

 Dipole moment (field-independent basis, Debye):
    X=              3.6573    Y=             -0.1299    Z=             -0.0002  Tot=              3.6596
 Quadrupole moment (field-independent basis, Debye-Ang):
   XX=            -33.5339   YY=            -36.6319   ZZ=            -26.0903
   XY=             -0.1211   XZ=              0.0006   YZ=              0.0000

  Exact polarizability:  57.309   0.264  51.126   0.006  -0.000  34.921
 Approx polarizability:  67.392   1.046  73.882   0.009   0.000  47.194

 ESP charges:
               1
     1  C   -0.321400
     2  H    0.012650
     3  H    0.018469
     4  H    0.018615
     5  C    1.015165
     6  O   -0.869397
     7  O   -0.874102
 Sum of ESP charges =  -1.00000

 Summary of Natural Population Analysis:

                                       Natural Population
                Natural  -----------------------------------------------
    Atom  No    Charge         Core      Valence    Rydberg      Total
 -----------------------------------------------------------------------
      C    1   -0.37382      0.99965     2.36745    0.00671     3.37382
      H    2    0.09893      0.00000     0.39830    0.00277     0.40107
      H    3    0.10112      0.00000     0.39686    0.00202     0.39888
      H    4    0.10109      0.00000     0.39687    0.00204     0.39891
      C    5    0.39918      0.99975     1.57647    0.02460     2.60082
      O    6   -0.41163      0.99989     3.39707    0.01467     4.41163
      O    7   -0.41487      0.99989     3.40037    0.01461     4.41487
 =======================================================================
   * Total *   -0.50000      3.99918    11.93339    0.06742    16.00000

 ******    1 imaginary frequencies (negative Signs) ******

                      1                      2                      3
                      A                      A                      A
 Frequencies --     -6.4263               430.8466               606.7049
 Red. masses --      1.0846                 3.0144                 2.2998
 Frc consts  --      0.0000                 0.3297                 0.4988
 IR Inten    --      0.0321                 1.8593                 5.7891

                      4                      5                      6
                      A                      A                      A
 Frequencies --    614.3706               864.8179               983.2655
 Red. masses --      5.7980                 7.0546                 1.4594
 Frc consts  --      1.2894                 3.1086                 0.8313
 IR Inten    --      8.4008                49.7938                11.6226

                      7                      8                      9
                      A                      A                      A
 Frequencies --   1016.2080              1294.8692              1348.4780
 Red. masses --      1.9587                 1.3095                 8.1676
 Frc consts  --      1.1917                 1.2937                 8.7505
 IR Inten    --      1.1155                 0.5287               309.7945

                     10                     11                     12
                      A                      A                      A
 Frequencies --   1429.6745              1443.7650              1634.8101
 Red. masses --      1.0751                 1.0516                 9.9809
 Frc consts  --      1.2947                 1.2915                15.7165
 IR Inten    --     22.5561                 2.6715               650.9681

                     13                     14                     15
                      A                      A                      A
 Frequencies --   2998.5278              3064.7012              3084.3499
 Red. masses --      1.0328                 1.1002                 1.1036
 Frc consts  --      5.4713                 6.0881                 6.1857
 IR Inten    --     57.2574                55.1260                66.4170

 - Thermochemistry -
 -------------------
 Temperature   298.150 Kelvin.  Pressure   1.00000 Atm.
 Atom     1 has atomic number  6 and mass  12.00000

 Molecular mass:    59.01330 amu.
 Principal axes and moments of inertia in atomic units:
                           1         2         3
     Eigenvalues --   159.04307 181.89541 329.63434
           X            0.99958  -0.02887   0.00002
           Y            0.02887   0.99958  -0.00000
           Z           -0.00002   0.00000   1.00000
 This molecule is an asymmetric top.
 Rotational symmetry number  1.
 Rotational temperatures (Kelvin)      0.54459     0.47617     0.26276
 Rotational constants (GHZ):          11.34750     9.92186     5.47498
    1 imaginary frequencies ignored.
 Zero-point vibrational energy     124503.7 (Joules/Mol)
                                   29.75709 (Kcal/Mol)
 Warning -- explicit consideration of   3 degrees of freedom as
           vibrations may cause significant error
 Vibrational temperatures:    619.89   872.91   883.94  1244.28  1414.70
          (Kelvin)           1462.10  1863.03  1940.16  2056.98  2077.26
                             2352.13  4314.21  4409.42  4437.69

 Zero-point correction=                           0.047421 (Hartree/Particle)
 Thermal correction to Energy=                    0.051014
 Thermal correction to Enthalpy=                  0.051958
 Thermal correction to Gibbs Free Energy=         0.021516
 Sum of electronic and zero-point Energies=           -228.515081
 Sum of electronic and thermal Energies=              -228.511487
 Sum of electronic and thermal Enthalpies=            -228.510543
 Sum of electronic and thermal Free Energies=         -228.540986

                     E (Thermal)             CV                S
                      KCal/Mol        Cal/Mol-Kelvin    Cal/Mol-Kelvin
 Total                   32.012             11.199             64.072
 Electronic               0.000              0.000              0.000
 Translational            0.889              2.981             38.146
 Rotational               0.889              2.981             23.771
 Vibrational             30.235              5.238              2.156
 Vibration     1          0.792              1.403              0.856
 Vibration     2          0.965              1.018              0.438
 Vibration     3          0.974              1.001              0.426

                           ! Non-Optimized Parameters !
 Normal termination of Gaussian 16 at Sat Aug  1 13:04:10 2020.
