 Gaussian 16, Revision A.03,
 Gaussian 16:  ES64L-G16RevA.03 25-Dec-2016

 ----------------------------------------------------------------------
 #p opt=(maxcycles=777) freq ub3lyp/aug-cc-pVDZ pop=(Bonding,AllOrbital
 s,mk,no,nboread)
 ----------------------------------------------------------------------

 -----------------------
 BF4-_UB3LYP-aug-cc-pVDZ
 -----------------------
 Symbolic Z-matrix:
 Charge = -1 Multiplicity = 1

 SCF Done:  E(UB3LYP) =  -424.590312770     A.U. after    9 cycles
 Optimization completed.
    -- Stationary point found.
 Normal termination of Gaussian 16 at Sat Aug  1 13:13:23 2020.

 ----------------------------------------------------------------------
 #P Geom=AllCheck Guess=TCheck SCRF=Check GenChk UB3LYP/Aug-CC-pVDZ Fre
 q
 ----------------------------------------------------------------------

 Structure from the checkpoint file:  "BF4-_UB3LYP-aug-cc-pVDZ-Opt.chk"
 -----------------------
 BF4-_UB3LYP-aug-cc-pVDZ
 -----------------------
 Charge = -1 Multiplicity = 1

                         Standard orientation:
 ---------------------------------------------------------------------
 Center     Atomic      Atomic             Coordinates (Angstroms)
 Number     Number       Type             X           Y           Z
 ---------------------------------------------------------------------
      1          5           0       -0.000001   -0.000117   -0.000374
      2          9           0        1.158381   -0.717153   -0.408284
      3          9           0       -1.164245   -0.717257   -0.391070
      4          9           0        0.010478    0.151784    1.413813
      5          9           0       -0.004613    1.282691   -0.614251
 ---------------------------------------------------------------------

 SCF Done:  E(UB3LYP) =  -424.590312770     A.U. after    1 cycles

 Mulliken charges and spin densities:
               1          2
     1  B    1.207704   0.000000
     2  F   -0.551831  -0.000000
     3  F   -0.551837  -0.000000
     4  F   -0.552157  -0.000000
     5  F   -0.551878  -0.000000
 Sum of Mulliken charges =  -1.00000   0.00000

 Dipole moment (field-independent basis, Debye):
    X=              0.0000    Y=             -0.0009    Z=             -0.0031  Tot=              0.0032
 Quadrupole moment (field-independent basis, Debye-Ang):
   XX=            -32.3487   YY=            -32.3486   ZZ=            -32.3495
   XY=             -0.0000   XZ=             -0.0000   YZ=             -0.0002

  Exact polarizability:  24.331   0.000  24.332   0.000  -0.001  24.330
 Approx polarizability:  28.483   0.000  28.482  -0.000   0.000  28.479

 ESP charges:
               1
     1  B    1.067778
     2  F   -0.516695
     3  F   -0.516848
     4  F   -0.517552
     5  F   -0.516683
 Sum of ESP charges =  -1.00000

 Summary of Natural Population Analysis:

                                       Natural Population
                Natural  -----------------------------------------------
    Atom  No    Charge         Core      Valence    Rydberg      Total
 -----------------------------------------------------------------------
      B    1    0.74855      0.99998     0.73639    0.01507     1.75145
      F    2   -0.31211      0.99998     3.80852    0.00361     4.81211
      F    3   -0.31212      0.99998     3.80853    0.00361     4.81212
      F    4   -0.31220      0.99998     3.80861    0.00361     4.81220
      F    5   -0.31213      0.99998     3.80854    0.00361     4.81213
 =======================================================================
   * Total *   -0.50000      4.99990    15.97059    0.02951    21.00000

                      1                      2                      3
                      A                      A                      A
 Frequencies --    322.7667               322.7766               476.2198
 Red. masses --     18.9984                18.9984                18.0376
 Frc consts  --      1.1661                 1.1662                 2.4101
 IR Inten    --      0.0000                 0.0000                 2.6852

                      4                      5                      6
                      A                      A                      A
 Frequencies --    476.2862               476.2917               720.2615
 Red. masses --     18.0366                18.0366                18.9984
 Frc consts  --      2.4107                 2.4107                 5.8069
 IR Inten    --      2.7060                 2.7047                 0.0001

                      7                      8                      9
                      A                      A                      A
 Frequencies --   1036.2271              1037.0119              1037.0993
 Red. masses --     12.0199                12.0204                12.0204
 Frc consts  --      7.6043                 7.6161                 7.6174
 IR Inten    --    425.1872               425.2832               425.3321

 - Thermochemistry -
 -------------------
 Temperature   298.150 Kelvin.  Pressure   1.00000 Atm.
 Atom     1 has atomic number  5 and mass  11.00931

 Molecular mass:    87.00292 amu.
 Principal axes and moments of inertia in atomic units:
                           1         2         3
     Eigenvalues --   365.87906 365.90236 365.99041
           X            1.00000  -0.00000  -0.00000
           Y            0.00000   1.00000  -0.00000
           Z            0.00000   0.00000   1.00000
 This molecule is an asymmetric top.
 Rotational symmetry number  1.
 Rotational temperatures (Kelvin)      0.23673     0.23671     0.23666
 Rotational constants (GHZ):           4.93262     4.93230     4.93112
 Zero-point vibrational energy      35319.4 (Joules/Mol)
                                    8.44154 (Kcal/Mol)
 Warning -- explicit consideration of   5 degrees of freedom as
           vibrations may cause significant error
 Vibrational temperatures:    464.39   464.40   685.17   685.27   685.28
          (Kelvin)           1036.30  1490.90  1492.03  1492.15

 Zero-point correction=                           0.013452 (Hartree/Particle)
 Thermal correction to Energy=                    0.017997
 Thermal correction to Enthalpy=                  0.018941
 Thermal correction to Gibbs Free Energy=        -0.014307
 Sum of electronic and zero-point Energies=           -424.576860
 Sum of electronic and thermal Energies=              -424.572315
 Sum of electronic and thermal Enthalpies=            -424.571371
 Sum of electronic and thermal Free Energies=         -424.604620

                     E (Thermal)             CV                S
                      KCal/Mol        Cal/Mol-Kelvin    Cal/Mol-Kelvin
 Total                   11.293             14.936             69.977
 Electronic               0.000              0.000              0.000
 Translational            0.889              2.981             39.303
 Rotational               0.889              2.981             25.397
 Vibrational              9.516              8.975              5.277
 Vibration     1          0.708              1.630              1.296
 Vibration     2          0.708              1.630              1.296
 Vibration     3          0.833              1.303              0.720
 Vibration     4          0.833              1.303              0.720
 Vibration     5          0.833              1.303              0.720

 Optimization completed.
    -- Stationary point found.
 Normal termination of Gaussian 16 at Sat Aug  1 13:14:10 2020.
