 Gaussian 16, Revision A.03,
 Gaussian 16:  ES64L-G16RevA.03 25-Dec-2016

 ----------------------------------------------------------------------
 #p opt=(maxcycles=777) freq ub3lyp/aug-cc-pVDZ pop=(Bonding,AllOrbital
 s,mk,no,nboread)
 ----------------------------------------------------------------------

 ----------------------
 Br-_UB3LYP-aug-cc-pVDZ
 ----------------------
 Symbolic Z-matrix:
 Charge = -1 Multiplicity = 1

 SCF Done:  E(UB3LYP) =  -2574.24807623     A.U. after    8 cycles
 SCF Done:  E(UB3LYP) =  -2574.24807623     A.U. after    1 cycles
 Optimization completed.
    -- Stationary point found.
 Normal termination of Gaussian 16 at Mon Mar 11 17:59:03 2019.

 ----------------------------------------------------------------------
 #P Geom=AllCheck Guess=TCheck SCRF=Check GenChk UB3LYP/Aug-CC-pVDZ Fre
 q
 ----------------------------------------------------------------------

 Structure from the checkpoint file:  "Br-_UB3LYP-aug-cc-pVDZ-Opt.chk"
 ----------------------
 Br-_UB3LYP-aug-cc-pVDZ
 ----------------------
 Charge = -1 Multiplicity = 1

                         Standard orientation:
 ---------------------------------------------------------------------
 Center     Atomic      Atomic             Coordinates (Angstroms)
 Number     Number       Type             X           Y           Z
 ---------------------------------------------------------------------
      1         35           0        0.000000    0.000000    0.000000
 ---------------------------------------------------------------------

 SCF Done:  E(UB3LYP) =  -2574.24807623     A.U. after    1 cycles

 Mulliken charges and spin densities:
               1          2
     1  Br  -1.000000   0.000000
 Sum of Mulliken charges =  -1.00000   0.00000

 Dipole moment (field-independent basis, Debye):
    X=              0.0000    Y=              0.0000    Z=              0.0000  Tot=              0.0000
 Quadrupole moment (field-independent basis, Debye-Ang):
   XX=            -24.4906   YY=            -24.4906   ZZ=            -24.4906
   XY=              0.0000   XZ=              0.0000   YZ=              0.0000

  Exact polarizability:  32.157  -0.000  32.157  -0.000  -0.000  32.157
 Approx polarizability:  43.280  -0.000  43.280  -0.000  -0.000  43.280

 ESP charges:
               1
     1  Br  -1.000000
 Sum of ESP charges =  -1.00000

 Summary of Natural Population Analysis:

                                       Natural Population
                Natural  -----------------------------------------------
    Atom  No    Charge         Core      Valence    Rydberg      Total
 -----------------------------------------------------------------------
     Br    1   -0.50000     14.00000     4.00000    0.00000    18.00000
 =======================================================================
   * Total *   -0.50000     14.00000     4.00000    0.00000    18.00000

 - Thermochemistry -
 -------------------
 Temperature   298.150 Kelvin.  Pressure   1.00000 Atm.
 Atom     1 has atomic number 35 and mass  78.91834
 Molecular mass:    78.91834 amu.
 Zero-point vibrational energy          0.0 (Joules/Mol)
                                    0.00000 (Kcal/Mol)
 Vibrational temperatures:
          (Kelvin)

 Zero-point correction=                           0.000000 (Hartree/Particle)
 Thermal correction to Energy=                    0.001416
 Thermal correction to Enthalpy=                  0.002360
 Thermal correction to Gibbs Free Energy=        -0.016176
 Sum of electronic and zero-point Energies=          -2574.248076
 Sum of electronic and thermal Energies=             -2574.246660
 Sum of electronic and thermal Enthalpies=           -2574.245716
 Sum of electronic and thermal Free Energies=        -2574.264252

                     E (Thermal)             CV                S
                      KCal/Mol        Cal/Mol-Kelvin    Cal/Mol-Kelvin
 Total                    0.889              2.981             39.012
 Electronic               0.000              0.000              0.000
 Translational            0.889              2.981             39.012
 Rotational               0.000              0.000              0.000
 Vibrational              0.000              0.000              0.000

 Optimization completed.
    -- Stationary point found.
 Normal termination of Gaussian 16 at Mon Mar 11 17:59:33 2019.
