 Gaussian 16, Revision A.03,
 Gaussian 16:  ES64L-G16RevA.03 25-Dec-2016

 ----------------------------------------------------------------------
 #p opt=(maxcycles=777) freq ub3lyp/aug-cc-pVDZ pop=(Bonding,AllOrbital
 s,mk,no,nboread)
 ----------------------------------------------------------------------

 --------------------------
 C6H4N2+_UB3LYP-aug-cc-pVDZ
 --------------------------
 Symbolic Z-matrix:
 Charge =  1 Multiplicity = 2

 SCF Done:  E(UB3LYP) =  -340.169720504     A.U. after   20 cycles
 SCF Done:  E(UB3LYP) =  -340.183911988     A.U. after   19 cycles
 SCF Done:  E(UB3LYP) =  -340.185222437     A.U. after   17 cycles
 SCF Done:  E(UB3LYP) =  -340.185306843     A.U. after   15 cycles
 SCF Done:  E(UB3LYP) =  -340.185320128     A.U. after   14 cycles
 SCF Done:  E(UB3LYP) =  -340.185321420     A.U. after   11 cycles
 Optimization completed.
    -- Stationary point found.
 Normal termination of Gaussian 16 at Sat Nov  5 19:26:19 2016.

 ----------------------------------------------------------------------
 #P Geom=AllCheck Guess=TCheck SCRF=Check GenChk UB3LYP/Aug-CC-pVDZ Fre
 q
 ----------------------------------------------------------------------

 Structure from the checkpoint file:  "C6H4N2+_UB3LYP-aug-cc-pVDZ-Opt.chk"
 --------------------------
 C6H4N2+_UB3LYP-aug-cc-pVDZ
 --------------------------
 Charge =  1 Multiplicity = 2

                         Standard orientation:
 ---------------------------------------------------------------------
 Center     Atomic      Atomic             Coordinates (Angstroms)
 Number     Number       Type             X           Y           Z
 ---------------------------------------------------------------------
      1          6           0        0.587869   -0.030498    0.000003
      2          7           0        1.968304   -0.068303    0.000002
      3          7           0        3.081351   -0.093880   -0.000003
      4          6           0       -0.128524   -1.226029    0.000001
      5          6           0       -1.495977   -1.274066   -0.000002
      6          6           0       -2.167075   -0.030918   -0.000001
      7          6           0       -1.467677    1.189860    0.000000
      8          6           0       -0.079706    1.220446   -0.000001
      9          1           0       -2.045742   -2.215597    0.000005
     10          1           0       -3.258129   -0.024338   -0.000005
     11          1           0       -2.020025    2.128623    0.000000
     12          1           0        0.482852    2.153826    0.000006
 ---------------------------------------------------------------------

 SCF Done:  E(UB3LYP) =  -340.185321420     A.U. after    1 cycles

 Mulliken charges and spin densities:
               1          2
     1  C    1.262878   0.014083
     2  N    0.426794   0.015350
     3  N   -0.614541  -0.024687
     4  C   -0.950958   1.027178
     5  C    0.808724  -0.173067
     6  C    0.947067   0.082201
     7  C    0.566505  -0.031051
     8  C    1.056729   0.052158
     9  H   -0.494024   0.017112
    10  H   -0.665416   0.008760
    11  H   -0.644154   0.001348
    12  H   -0.699605   0.010616
 Sum of Mulliken charges =   1.00000   1.00000

 Dipole moment (field-independent basis, Debye):
    X=              0.1778    Y=              0.6785    Z=              0.0000  Tot=              0.7014
 Quadrupole moment (field-independent basis, Debye-Ang):
   XX=            -20.3407   YY=            -33.1168   ZZ=            -44.7616
   XY=              1.1932   XZ=              0.0000   YZ=             -0.0000

  Exact polarizability: 124.242   0.732  75.688  -0.000   0.000  41.854
 Approx polarizability: 240.787   0.620 131.665  -0.000  -0.000  64.082

 ESP charges:
               1
     1  C    0.028498
     2  N    0.427235
     3  N    0.038581
     4  C    0.061577
     5  C   -0.104300
     6  C    0.027892
     7  C   -0.067315
     8  C   -0.115350
     9  H    0.192058
    10  H    0.153334
    11  H    0.164251
    12  H    0.193538
 Sum of ESP charges =   1.00000

 Summary of Natural Population Analysis:

                                       Natural Population
                Natural  -----------------------------------------------
    Atom  No    Charge         Core      Valence    Rydberg      Total
 -----------------------------------------------------------------------
      C    1   -0.05155      0.99932     2.04046    0.01176     3.05155
      N    2    0.07789      0.99963     2.40628    0.01620     3.42211
      N    3    0.14413      0.99982     2.34039    0.01567     3.35587
      C    4    0.62631      0.99876     1.36647    0.00846     2.37369
      C    5   -0.17973      0.99943     2.17136    0.00894     3.17973
      C    6   -0.02045      0.99951     2.01338    0.00757     3.02045
      C    7   -0.11791      0.99949     2.11021    0.00821     3.11791
      C    8   -0.05805      0.99945     2.05013    0.00847     3.05805
      H    9    0.15629      0.00000     0.34177    0.00194     0.34371
      H   10    0.13934      0.00000     0.35848    0.00218     0.36066
      H   11    0.14016      0.00000     0.35778    0.00206     0.35984
      H   12    0.14357      0.00000     0.35423    0.00220     0.35643
 =======================================================================
   * Total *    1.00000      7.99542    17.91094    0.09365    26.00000

                      1                      2                      3
                      A                      A                      A
 Frequencies --    142.6438               170.8325               380.7895
 Red. masses --      6.3489                 7.6715                 3.5420
 Frc consts  --      0.0761                 0.1319                 0.3026
 IR Inten    --      0.4876                 0.1579                 0.4075

                      4                      5                      6
                      A                      A                      A
 Frequencies --    408.3577               453.2654               529.1262
 Red. masses --      4.3931                 9.4484                 8.9940
 Frc consts  --      0.4316                 1.1437                 1.4836
 IR Inten    --      3.8552                 9.0502                 0.7214

                      7                      8                      9
                      A                      A                      A
 Frequencies --    537.7091               618.0054               637.5029
 Red. masses --      7.0107                 7.6179                 3.2342
 Frc consts  --      1.1943                 1.7142                 0.7744
 IR Inten    --      5.1631                 1.2751                 1.7754

                     10                     11                     12
                      A                      A                      A
 Frequencies --    753.8262               758.2314               847.7727
 Red. masses --      1.2189                 6.3110                 1.3396
 Frc consts  --      0.4081                 2.1377                 0.5673
 IR Inten    --     69.5380                 0.1624                 0.0945

                     13                     14                     15
                      A                      A                      A
 Frequencies --    972.3057               974.0154              1022.8057
 Red. masses --      1.3583                 6.7352                 1.4146
 Frc consts  --      0.7566                 3.7647                 0.8719
 IR Inten    --      0.5256                 2.9742                 0.4744

                     16                     17                     18
                      A                      A                      A
 Frequencies --   1024.8956              1123.0304              1155.1283
 Red. masses --      2.3252                 1.8884                 2.2919
 Frc consts  --      1.4390                 1.4032                 1.8018
 IR Inten    --      2.8589                54.8525                64.0462

                     19                     20                     21
                      A                      A                      A
 Frequencies --   1188.7936              1246.4318              1361.6817
 Red. masses --      1.2038                 1.5334                 3.7485
 Frc consts  --      1.0024                 1.4036                 4.0950
 IR Inten    --      6.1874                 4.4778                10.5416

                     22                     23                     24
                      A                      A                      A
 Frequencies --   1430.2211              1451.0913              1548.6600
 Red. masses --      2.4670                 2.5284                 4.3681
 Frc consts  --      2.9733                 3.1368                 6.1724
 IR Inten    --      1.8028                21.0721                25.1424

                     25                     26                     27
                      A                      A                      A
 Frequencies --   1608.2215              2344.2901              3192.7021
 Red. masses --      6.8359                13.9702                 1.0881
 Frc consts  --     10.4169                45.2349                 6.5351
 IR Inten    --    109.8357               233.5796                 5.8989

                     28                     29                     30
                      A                      A                      A
 Frequencies --   3202.7119              3205.7548              3219.4532
 Red. masses --      1.0921                 1.0946                 1.0981
 Frc consts  --      6.5999                 6.6280                 6.7058
 IR Inten    --      1.3614                19.0154                 8.4562

 - Thermochemistry -
 -------------------
 Temperature   298.150 Kelvin.  Pressure   1.00000 Atm.
 Atom     1 has atomic number  6 and mass  12.00000

 Molecular mass:   104.03745 amu.
 Principal axes and moments of inertia in atomic units:
                           1         2         3
     Eigenvalues --   309.736261140.997571450.73383
           X            0.99999   0.00520   0.00000
           Y           -0.00520   0.99999   0.00000
           Z           -0.00000  -0.00000   1.00000
 This molecule is an asymmetric top.
 Rotational symmetry number  1.
 Rotational temperatures (Kelvin)      0.27964     0.07591     0.05970
 Rotational constants (GHZ):           5.82670     1.58172     1.24402
 Zero-point vibrational energy     224361.2 (Joules/Mol)
                                   53.62360 (Kcal/Mol)
 Warning -- explicit consideration of   8 degrees of freedom as
           vibrations may cause significant error
 Vibrational temperatures:    205.23   245.79   547.87   587.54   652.15
          (Kelvin)            761.29   773.64   889.17   917.22  1084.59
                             1090.93  1219.76  1398.93  1401.39  1471.59
                             1474.60  1615.79  1661.97  1710.41  1793.34
                             1959.16  2057.77  2087.80  2228.18  2313.87
                             3372.91  4593.59  4607.99  4612.37  4632.08

 Zero-point correction=                           0.085455 (Hartree/Particle)
 Thermal correction to Energy=                    0.091636
 Thermal correction to Enthalpy=                  0.092580
 Thermal correction to Gibbs Free Energy=         0.054495
 Sum of electronic and zero-point Energies=           -340.099867
 Sum of electronic and thermal Energies=              -340.093686
 Sum of electronic and thermal Enthalpies=            -340.092742
 Sum of electronic and thermal Free Energies=         -340.130826

                     E (Thermal)             CV                S
                      KCal/Mol        Cal/Mol-Kelvin    Cal/Mol-Kelvin
 Total                   57.502             23.221             80.156
 Electronic               0.000              0.000              1.377
 Translational            0.889              2.981             39.836
 Rotational               0.889              2.981             27.730
 Vibrational             55.725             17.259             11.213
 Vibration     1          0.616              1.911              2.768
 Vibration     2          0.626              1.878              2.426
 Vibration     3          0.751              1.511              1.036
 Vibration     4          0.773              1.452              0.932
 Vibration     5          0.812              1.354              0.786
 Vibration     6          0.884              1.186              0.589
 Vibration     7          0.893              1.167              0.570
 Vibration     8          0.978              0.994              0.420

 Optimization completed.
    -- Stationary point found.
 Normal termination of Gaussian 16 at Sat Nov  5 19:35:34 2016.
