 Gaussian 16, Revision A.03,
 Gaussian 16:  ES64L-G16RevA.03 25-Dec-2016

 ----------------------------------------------------------------------
 #p opt=(maxcycles=777) freq ub3lyp/aug-cc-pVDZ pop=(Bonding,AllOrbital
 s,mk,no,nboread)
 ----------------------------------------------------------------------

 --------------------------
 CF3COO-_UB3LYP-aug-cc-pVDZ
 --------------------------
 Symbolic Z-matrix:
 Charge = -1 Multiplicity = 1

 SCF Done:  E(UB3LYP) =  -526.351076837     A.U. after   13 cycles
 SCF Done:  E(UB3LYP) =  -526.351077055     A.U. after    8 cycles
 SCF Done:  E(UB3LYP) =  -526.351075838     A.U. after    9 cycles
 SCF Done:  E(UB3LYP) =  -526.351067866     A.U. after   10 cycles
 SCF Done:  E(UB3LYP) =  -526.351076863     A.U. after   10 cycles
 SCF Done:  E(UB3LYP) =  -526.351077468     A.U. after    9 cycles
 SCF Done:  E(UB3LYP) =  -526.351077664     A.U. after    9 cycles
 SCF Done:  E(UB3LYP) =  -526.351077817     A.U. after    9 cycles
 Optimization completed.
    -- Stationary point found.
 Normal termination of Gaussian 16 at Sat Aug  1 13:32:19 2020.

 ----------------------------------------------------------------------
 #P Geom=AllCheck Guess=TCheck SCRF=Check GenChk UB3LYP/Aug-CC-pVDZ Fre
 q
 ----------------------------------------------------------------------

 Structure from the checkpoint file:  "CF3COO-_UB3LYP-aug-cc-pVDZ-Opt.chk"
 --------------------------
 CF3COO-_UB3LYP-aug-cc-pVDZ
 --------------------------
 Charge = -1 Multiplicity = 1

                         Standard orientation:
 ---------------------------------------------------------------------
 Center     Atomic      Atomic             Coordinates (Angstroms)
 Number     Number       Type             X           Y           Z
 ---------------------------------------------------------------------
      1          6           0       -0.514915    0.012493   -0.000040
      2          9           0       -1.035560   -0.632231   -1.093669
      3          9           0       -1.035447   -0.631248    1.094318
      4          9           0       -1.090312    1.249497   -0.000562
      5          6           0        1.070225    0.011227   -0.000046
      6          8           0        1.596175    1.141308    0.000002
      7          8           0        1.543826   -1.143368   -0.000035
 ---------------------------------------------------------------------

 SCF Done:  E(UB3LYP) =  -526.351077817     A.U. after    1 cycles

 Mulliken charges and spin densities:
               1          2
     1  C    1.283475   0.000000
     2  F   -0.464120   0.000000
     3  F   -0.464181   0.000000
     4  F   -0.479040   0.000000
     5  C    0.375229  -0.000000
     6  O   -0.616851   0.000000
     7  O   -0.634511  -0.000000
 Sum of Mulliken charges =  -1.00000  -0.00000

 Dipole moment (field-independent basis, Debye):
    X=             -4.6979    Y=              0.0968    Z=             -0.0004  Tot=              4.6989
 Quadrupole moment (field-independent basis, Debye-Ang):
   XX=            -54.1391   YY=            -49.4040   ZZ=            -40.1988
   XY=             -0.0655   XZ=              0.0003   YZ=              0.0000

  Exact polarizability:  45.922   0.151  48.922  -0.000  -0.000  34.624
 Approx polarizability:  54.707   0.395  75.304   0.000  -0.000  47.650

 ESP charges:
               1
     1  C    0.515795
     2  F   -0.262057
     3  F   -0.262088
     4  F   -0.265938
     5  C    0.766816
     6  O   -0.744051
     7  O   -0.748477
 Sum of ESP charges =  -1.00000

 Summary of Natural Population Analysis:

                                       Natural Population
                Natural  -----------------------------------------------
    Atom  No    Charge         Core      Valence    Rydberg      Total
 -----------------------------------------------------------------------
      C    1    0.50586      0.99964     1.46172    0.03278     2.49414
      F    2   -0.20180      0.99996     3.69681    0.00503     4.70180
      F    3   -0.20181      0.99996     3.69682    0.00503     4.70181
      F    4   -0.19905      0.99996     3.69371    0.00539     4.69905
      C    5    0.36542      0.99966     1.60661    0.02831     2.63458
      O    6   -0.38294      0.99989     3.36802    0.01504     4.38294
      O    7   -0.38567      0.99989     3.37057    0.01522     4.38567
 =======================================================================
   * Total *   -0.50000      6.99895    20.89426    0.10679    28.00000

                      1                      2                      3
                      A                      A                      A
 Frequencies --     17.8599               240.0801               252.5590
 Red. masses --     16.8384                17.3749                17.7235
 Frc consts  --      0.0032                 0.5900                 0.6661
 IR Inten    --      0.1977                 0.3385                 6.3402

                      4                      5                      6
                      A                      A                      A
 Frequencies --    362.1859               412.5152               499.1981
 Red. masses --     16.4490                17.1157                18.0016
 Frc consts  --      1.2713                 1.7160                 2.6431
 IR Inten    --      0.4262                 0.0062                 2.6052

                      7                      8                      9
                      A                      A                      A
 Frequencies --    562.2423               693.5100               781.1709
 Red. masses --     17.5152                17.1741                14.8314
 Frc consts  --      3.2622                 4.8667                 5.3324
 IR Inten    --      0.0770                18.8788                89.7745

                     10                     11                     12
                      A                      A                      A
 Frequencies --    782.5863              1057.5254              1093.8335
 Red. masses --     13.0456                12.9310                12.8774
 Frc consts  --      4.7074                 8.5205                 9.0778
 IR Inten    --     37.5861               283.6145               255.4180

                     13                     14                     15
                      A                      A                      A
 Frequencies --   1171.6247              1353.4976              1738.3810
 Red. masses --     13.2384                13.6937                12.9576
 Frc consts  --     10.7069                14.7804                23.0710
 IR Inten    --    208.2927                68.9068               656.1827

 - Thermochemistry -
 -------------------
 Temperature   298.150 Kelvin.  Pressure   1.00000 Atm.
 Atom     1 has atomic number  6 and mass  12.00000

 Molecular mass:   112.98504 amu.
 Principal axes and moments of inertia in atomic units:
                           1         2         3
     Eigenvalues --   471.55523 730.33279 877.09674
           X            1.00000   0.00075  -0.00000
           Y           -0.00075   1.00000   0.00000
           Z            0.00000  -0.00000   1.00000
 This molecule is an asymmetric top.
 Rotational symmetry number  1.
 Warning -- assumption of classical behavior for rotation
           may cause significant error
 Rotational temperatures (Kelvin)      0.18368     0.11860     0.09875
 Rotational constants (GHZ):           3.82721     2.47112     2.05763
 Zero-point vibrational energy      65906.9 (Joules/Mol)
                                   15.75212 (Kcal/Mol)
 Warning -- explicit consideration of   7 degrees of freedom as
           vibrations may cause significant error
 Vibrational temperatures:     25.70   345.42   363.38   521.10   593.52
          (Kelvin)            718.23   808.94   997.81  1123.93  1125.97
                             1521.54  1573.78  1685.71  1947.38  2501.14

 Zero-point correction=                           0.025103 (Hartree/Particle)
 Thermal correction to Energy=                    0.031242
 Thermal correction to Enthalpy=                  0.032186
 Thermal correction to Gibbs Free Energy=        -0.006698
 Sum of electronic and zero-point Energies=           -526.325975
 Sum of electronic and thermal Energies=              -526.319836
 Sum of electronic and thermal Enthalpies=            -526.318891
 Sum of electronic and thermal Free Energies=         -526.357776

                     E (Thermal)             CV                S
                      KCal/Mol        Cal/Mol-Kelvin    Cal/Mol-Kelvin
 Total                   19.605             20.030             81.839
 Electronic               0.000              0.000              0.000
 Translational            0.889              2.981             40.082
 Rotational               0.889              2.981             27.204
 Vibrational             17.827             14.069             14.553
 Vibration     1          0.593              1.986              6.859
 Vibration     2          0.657              1.779              1.802
 Vibration     3          0.664              1.758              1.713
 Vibration     4          0.736              1.550              1.113
 Vibration     5          0.776              1.443              0.918
 Vibration     6          0.855              1.252              0.660
 Vibration     7          0.918              1.113              0.519

 Optimization completed.
    -- Stationary point found.
 Normal termination of Gaussian 16 at Sat Aug  1 13:34:46 2020.
