 Gaussian 16, Revision A.03,
 Gaussian 16:  ES64L-G16RevA.03 25-Dec-2016

 ----------------------------------------------------------------------
 #p opt=(maxcycles=777) freq ub3lyp/aug-cc-pVDZ pop=(Bonding,AllOrbital
 s,mk,no,nboread)
 ----------------------------------------------------------------------

 ------------------------
 H2SO4_UB3LYP-aug-cc-pVDZ
 ------------------------
 Symbolic Z-matrix:
 Charge =  0 Multiplicity = 1

 SCF Done:  E(UB3LYP) =  -700.280557023     A.U. after   12 cycles
 SCF Done:  E(UB3LYP) =  -700.280557399     A.U. after    8 cycles
 Optimization completed.
    -- Stationary point found.
 Normal termination of Gaussian 16 at Sat Aug  1 13:58:22 2020.

 ----------------------------------------------------------------------
 #P Geom=AllCheck Guess=TCheck SCRF=Check GenChk UB3LYP/Aug-CC-pVDZ Fre
 q
 ----------------------------------------------------------------------

 Structure from the checkpoint file:  "H2SO4_UB3LYP-aug-cc-pVDZ-Opt.chk"
 ------------------------
 H2SO4_UB3LYP-aug-cc-pVDZ
 ------------------------
 Charge =  0 Multiplicity = 1

                         Standard orientation:
 ---------------------------------------------------------------------
 Center     Atomic      Atomic             Coordinates (Angstroms)
 Number     Number       Type             X           Y           Z
 ---------------------------------------------------------------------
      1         16           0        0.000024    0.000325   -0.168024
      2          8           0        0.647301    1.129669   -0.842387
      3          8           0       -0.646530   -1.126011   -0.848167
      4          8           0        1.080755   -0.678865    0.873339
      5          1           0        1.725898    0.008953    1.112376
      6          8           0       -1.082177    0.675466    0.874342
      7          1           0       -1.721069   -0.016236    1.118990
 ---------------------------------------------------------------------

 SCF Done:  E(UB3LYP) =  -700.280557399     A.U. after    1 cycles

 Mulliken charges and spin densities:
               1          2
     1  S    2.121204  -0.000000
     2  O   -0.677737   0.000000
     3  O   -0.677613  -0.000000
     4  O   -0.506072   0.000000
     5  H    0.123228   0.000000
     6  O   -0.506056  -0.000000
     7  H    0.123046   0.000000
 Sum of Mulliken charges =  -0.00000  -0.00000

 Dipole moment (field-independent basis, Debye):
    X=              0.0085    Y=             -0.0107    Z=              2.9009  Tot=              2.9009
 Quadrupole moment (field-independent basis, Debye-Ang):
   XX=            -29.3606   YY=            -40.8921   ZZ=            -35.5829
   XY=              0.6419   XZ=             -0.0138   YZ=             -0.0206

  Exact polarizability:  39.921   1.987  38.768   0.000  -0.001  37.520
 Approx polarizability:  57.335   6.635  63.586   0.009   0.005  55.039

 ESP charges:
               1
     1  S    0.906154
     2  O   -0.390454
     3  O   -0.389978
     4  O   -0.475259
     5  H    0.411733
     6  O   -0.472458
     7  H    0.410262
 Sum of ESP charges =  -0.00000

 Summary of Natural Population Analysis:

                                       Natural Population
                Natural  -----------------------------------------------
    Atom  No    Charge         Core      Valence    Rydberg      Total
 -----------------------------------------------------------------------
      S    1    1.24781      4.99956     1.66695    0.08568     6.75219
      O    2   -0.44365      0.99992     3.42229    0.02144     4.44365
      O    3   -0.44354      0.99992     3.42220    0.02143     4.44354
      O    4   -0.44258      0.99992     3.42596    0.01670     4.44258
      H    5    0.26225      0.00000     0.23478    0.00297     0.23775
      O    6   -0.44246      0.99992     3.42583    0.01671     4.44246
      H    7    0.26217      0.00000     0.23486    0.00297     0.23783
 =======================================================================
   * Total *   -0.00000      8.99924    15.83287    0.16789    25.00000

                      1                      2                      3
                      A                      A                      A
 Frequencies --    224.7044               306.9180               325.4583
 Red. masses --      1.3670                 1.1361                12.9226
 Frc consts  --      0.0407                 0.0631                 0.8065
 IR Inten    --     89.8724                51.6310                 1.6052

                      4                      5                      6
                      A                      A                      A
 Frequencies --    393.3572               442.6952               482.4204
 Red. masses --      2.7470                 4.8929                14.6036
 Frc consts  --      0.2504                 0.5650                 2.0025
 IR Inten    --     19.1178                39.6729                35.2236

                      7                      8                      9
                      A                      A                      A
 Frequencies --    493.9905               745.2638               801.8226
 Red. masses --     14.1918                15.0575                18.2306
 Frc consts  --      2.0405                 4.9275                 6.9057
 IR Inten    --     21.0054                94.2427               291.7720

                     10                     11                     12
                      A                      A                      A
 Frequencies --   1117.2603              1157.6706              1158.7000
 Red. masses --     18.0964                 1.4203                 1.1134
 Frc consts  --     13.3091                 1.1215                 0.8807
 IR Inten    --    171.9301                86.9019                52.9689

                     13                     14                     15
                      A                      A                      A
 Frequencies --   1364.0962              3734.8638              3738.9335
 Red. masses --      5.0662                 1.0657                 1.0660
 Frc consts  --      5.5542                 8.7589                 8.7802
 IR Inten    --    257.5770               192.4943                45.6000

 - Thermochemistry -
 -------------------
 Temperature   298.150 Kelvin.  Pressure   1.00000 Atm.
 Atom     1 has atomic number 16 and mass  31.97207

 Molecular mass:    97.96738 amu.
 Principal axes and moments of inertia in atomic units:
                           1         2         3
     Eigenvalues --   378.55437 383.66289 400.49760
           X            0.99955   0.03008  -0.00097
           Y           -0.03009   0.99955  -0.00177
           Z            0.00091   0.00180   1.00000
 This molecule is an asymmetric top.
 Rotational symmetry number  1.
 Rotational temperatures (Kelvin)      0.22880     0.22576     0.21627
 Rotational constants (GHZ):           4.76746     4.70398     4.50625
 Zero-point vibrational energy      98621.1 (Joules/Mol)
                                   23.57100 (Kcal/Mol)
 Warning -- explicit consideration of   7 degrees of freedom as
           vibrations may cause significant error
 Vibrational temperatures:    323.30   441.59   468.26   565.95   636.94
          (Kelvin)            694.10   710.74  1072.27  1153.64  1607.49
                             1665.63  1667.11  1962.63  5373.64  5379.49

 Zero-point correction=                           0.037563 (Hartree/Particle)
 Thermal correction to Energy=                    0.043016
 Thermal correction to Enthalpy=                  0.043961
 Thermal correction to Gibbs Free Energy=         0.008977
 Sum of electronic and zero-point Energies=           -700.242995
 Sum of electronic and thermal Energies=              -700.237541
 Sum of electronic and thermal Enthalpies=            -700.236597
 Sum of electronic and thermal Free Energies=         -700.271580

                     E (Thermal)             CV                S
                      KCal/Mol        Cal/Mol-Kelvin    Cal/Mol-Kelvin
 Total                   26.993             18.710             73.629
 Electronic               0.000              0.000              0.000
 Translational            0.889              2.981             39.657
 Rotational               0.889              2.981             25.567
 Vibrational             25.216             12.748              8.405
 Vibration     1          0.649              1.803              1.921
 Vibration     2          0.697              1.661              1.379
 Vibration     3          0.710              1.625              1.283
 Vibration     4          0.761              1.484              0.987
 Vibration     5          0.802              1.377              0.818
 Vibration     6          0.839              1.289              0.704
 Vibration     7          0.850              1.263              0.673

                           ! Non-Optimized Parameters !
 Normal termination of Gaussian 16 at Sat Aug  1 14:00:02 2020.
