 Gaussian 16, Revision A.03,
 Gaussian 16:  ES64L-G16RevA.03 25-Dec-2016

 ----------------------------------------------------------------------
 #p opt=(maxcycles=777) freq ub3lyp/aug-cc-pVDZ pop=(Bonding,AllOrbital
 s,mk,no,nboread)
 ----------------------------------------------------------------------

 -----------------------
 HBF4_UB3LYP-aug-cc-pVDZ
 -----------------------
 Symbolic Z-matrix:
 Charge =  0 Multiplicity = 1

 SCF Done:  E(UB3LYP) =  -425.061326383     A.U. after   10 cycles
 SCF Done:  E(UB3LYP) =  -425.061328826     A.U. after    8 cycles
 SCF Done:  E(UB3LYP) =  -425.061330704     A.U. after    8 cycles
 SCF Done:  E(UB3LYP) =  -425.061331682     A.U. after    8 cycles
 SCF Done:  E(UB3LYP) =  -425.061331886     A.U. after    7 cycles
 SCF Done:  E(UB3LYP) =  -425.061331981     A.U. after    7 cycles
 Optimization completed.
    -- Stationary point found.
 Normal termination of Gaussian 16 at Sat Aug  1 14:26:13 2020.

 ----------------------------------------------------------------------
 #P Geom=AllCheck Guess=TCheck SCRF=Check GenChk UB3LYP/Aug-CC-pVDZ Fre
 q
 ----------------------------------------------------------------------

 Structure from the checkpoint file:  "HBF4_UB3LYP-aug-cc-pVDZ-Opt.chk"
 -----------------------
 HBF4_UB3LYP-aug-cc-pVDZ
 -----------------------
 Charge =  0 Multiplicity = 1

                         Standard orientation:
 ---------------------------------------------------------------------
 Center     Atomic      Atomic             Coordinates (Angstroms)
 Number     Number       Type             X           Y           Z
 ---------------------------------------------------------------------
      1          5           0       -0.583789    0.052224    0.004165
      2          9           0       -0.339447    1.360592    0.098756
      3          9           0       -0.755851   -0.500360   -1.189846
      4          9           0        1.916050   -0.283926   -0.021349
      5          9           0       -0.752526   -0.667164    1.106255
      6          1           0        2.304909    0.556606    0.034820
 ---------------------------------------------------------------------

 SCF Done:  E(UB3LYP) =  -425.061331981     A.U. after    1 cycles

 Mulliken charges and spin densities:
               1          2
     1  B    1.222370   0.000000
     2  F   -0.439740   0.000000
     3  F   -0.394081  -0.000000
     4  F   -0.281296   0.000000
     5  F   -0.394561   0.000000
     6  H    0.287309   0.000000
 Sum of Mulliken charges =  -0.00000   0.00000

 Dipole moment (field-independent basis, Debye):
    X=              1.2807    Y=              1.4570    Z=              0.0965  Tot=              1.9423
 Quadrupole moment (field-independent basis, Debye-Ang):
   XX=            -20.6096   YY=            -26.9815   ZZ=            -28.0946
   XY=              3.1458   XZ=              0.1985   YZ=              0.0724

  Exact polarizability:  20.831   1.173  22.544   0.085   0.057  21.665
 Approx polarizability:  24.089   1.792  28.652   0.130   0.126  26.723

 ESP charges:
               1
     1  B    0.877571
     2  F   -0.323412
     3  F   -0.292023
     4  F   -0.399706
     5  F   -0.292032
     6  H    0.429603
 Sum of ESP charges =   0.00000

 Summary of Natural Population Analysis:

                                       Natural Population
                Natural  -----------------------------------------------
    Atom  No    Charge         Core      Valence    Rydberg      Total
 -----------------------------------------------------------------------
      B    1    0.77064      0.99997     0.71813    0.01125     1.72936
      F    2   -0.26395      0.99997     3.75775    0.00623     4.76395
      F    3   -0.25775      0.99997     3.75132    0.00646     4.75775
      F    4   -0.28061      0.99998     3.77512    0.00551     4.78061
      F    5   -0.25774      0.99997     3.75131    0.00646     4.75774
      H    6    0.28941      0.00000     0.20776    0.00283     0.21059
 =======================================================================
   * Total *   -0.00000      4.99987    15.96139    0.03873    21.00000

                      1                      2                      3
                      A                      A                      A
 Frequencies --     85.1399                92.3527               105.0528
 Red. masses --     10.4344                 8.1843                 5.4403
 Frc consts  --      0.0446                 0.0411                 0.0354
 IR Inten    --     17.4461                 5.1843                 2.4861

                      4                      5                      6
                      A                      A                      A
 Frequencies --    117.5021               288.3124               454.4114
 Red. masses --      1.1475                 1.2477                17.2413
 Frc consts  --      0.0093                 0.0611                 2.0976
 IR Inten    --    138.4949               172.7332                15.3872

                      7                      8                      9
                      A                      A                      A
 Frequencies --    457.0990               668.3828               844.9683
 Red. masses --     15.3025                11.9170                18.9600
 Frc consts  --      1.8838                 3.1367                 7.9757
 IR Inten    --     13.0802               140.0560                 1.4698

                     10                     11                     12
                      A                      A                      A
 Frequencies --   1388.1376              1412.3920              4028.8042
 Red. masses --     12.1239                12.2694                 1.0581
 Frc consts  --     13.7644                14.4207                10.1189
 IR Inten    --    412.9566               419.7955               137.6521

 - Thermochemistry -
 -------------------
 Temperature   298.150 Kelvin.  Pressure   1.00000 Atm.
 Atom     1 has atomic number  5 and mass  11.00931

 Molecular mass:    88.01074 amu.
 Principal axes and moments of inertia in atomic units:
                           1         2         3
     Eigenvalues --   359.08750 545.71163 546.20480
           X            0.99962  -0.00319   0.02751
           Y           -0.02764  -0.17675   0.98387
           Z           -0.00173   0.98425   0.17677
 This molecule is an asymmetric top.
 Rotational symmetry number  1.
 Rotational temperatures (Kelvin)      0.24121     0.15872     0.15857
 Rotational constants (GHZ):           5.02591     3.30713     3.30415
 Zero-point vibrational energy      59469.7 (Joules/Mol)
                                   14.21360 (Kcal/Mol)
 Warning -- explicit consideration of   7 degrees of freedom as
           vibrations may cause significant error
 Vibrational temperatures:    122.50   132.87   151.15   169.06   414.82
          (Kelvin)            653.80   657.66   961.65  1215.72  1997.22
                             2032.12  5796.55

 Zero-point correction=                           0.022651 (Hartree/Particle)
 Thermal correction to Energy=                    0.029583
 Thermal correction to Enthalpy=                  0.030527
 Thermal correction to Gibbs Free Energy=        -0.008902
 Sum of electronic and zero-point Energies=           -425.038681
 Sum of electronic and thermal Energies=              -425.031749
 Sum of electronic and thermal Enthalpies=            -425.030805
 Sum of electronic and thermal Free Energies=         -425.070234

                     E (Thermal)             CV                S
                      KCal/Mol        Cal/Mol-Kelvin    Cal/Mol-Kelvin
 Total                   18.564             19.830             82.985
 Electronic               0.000              0.000              0.000
 Translational            0.889              2.981             39.337
 Rotational               0.889              2.981             26.173
 Vibrational             16.786             13.868             17.474
 Vibration     1          0.601              1.959              3.769
 Vibration     2          0.602              1.955              3.610
 Vibration     3          0.605              1.945              3.358
 Vibration     4          0.608              1.935              3.141
 Vibration     5          0.685              1.695              1.484
 Vibration     6          0.813              1.351              0.783
 Vibration     7          0.815              1.345              0.775

                           ! Non-Optimized Parameters !
 Normal termination of Gaussian 16 at Sat Aug  1 14:27:14 2020.
