 Gaussian 16, Revision A.03,
 Gaussian 16:  ES64L-G16RevA.03 25-Dec-2016

 ----------------------------------------------------------------------
 #p opt=(maxcycles=777) freq ub3lyp/aug-cc-pVDZ pop=(Bonding,AllOrbital
 s,mk,no,nboread)
 ----------------------------------------------------------------------

 ----------------------
 HBr_UB3LYP-aug-cc-pVDZ
 ----------------------
 Symbolic Z-matrix:
 Charge =  0 Multiplicity = 1

 SCF Done:  E(UB3LYP) =  -2574.75219417     A.U. after    8 cycles
 SCF Done:  E(UB3LYP) =  -2574.76319140     A.U. after    9 cycles
 SCF Done:  E(UB3LYP) =  -2574.76319799     A.U. after    7 cycles
 Optimization completed.
    -- Stationary point found.

 1\1\GINC-LC06-3-8\FOpt\UB3LYP\Aug-CC-pVDZ\Br1H1\UBUNTU\11-Mar-2019\0\\
 #p opt=(maxcycles=777) freq ub3lyp/aug-cc-pVDZ pop=(Bonding,AllOrbital
 s,mk,no,nboread)\\HBr_UB3LYP-aug-cc-pVDZ\\0,1\Br,-0.6789357372,-0.5277
 ,0.004\H,-2.1110642628,-0.5277,0.004\\Version=ES64L-G16RevA.03\State=1
 -SG\HF=-2574.763198\S2=0.\S2-1=0.\S2A=0.\RMSD=1.899e-09\RMSF=2.309e-05
 \Dipole=-0.3441998,0.,0.\Quadrupole=2.0752276,-1.0376138,-1.0376138,0.
 ,0.,0.\PG=C*V [C*(H1Br1)]\\@

 Normal termination of Gaussian 16 at Mon Mar 11 18:01:49 2019.

 ----------------------------------------------------------------------
 #P Geom=AllCheck Guess=TCheck SCRF=Check GenChk UB3LYP/Aug-CC-pVDZ Fre
 q
 ----------------------------------------------------------------------

 Structure from the checkpoint file:  "HBr_UB3LYP-aug-cc-pVDZ-Opt.chk"
 ----------------------
 HBr_UB3LYP-aug-cc-pVDZ
 ----------------------
 Charge =  0 Multiplicity = 1

                         Standard orientation:
 ---------------------------------------------------------------------
 Center     Atomic      Atomic             Coordinates (Angstroms)
 Number     Number       Type             X           Y           Z
 ---------------------------------------------------------------------
      1         35           0        0.000000    0.000000    0.039781
      2          1           0        0.000000    0.000000   -1.392347
 ---------------------------------------------------------------------

 SCF Done:  E(UB3LYP) =  -2574.76319799     A.U. after    1 cycles

 Mulliken charges and spin densities:
               1          2
     1  Br   0.032664   0.000000
     2  H   -0.032664  -0.000000
 Sum of Mulliken charges =   0.00000  -0.00000

 Dipole moment (field-independent basis, Debye):
    X=              0.0000    Y=              0.0000    Z=             -0.8749  Tot=              0.8749
 Quadrupole moment (field-independent basis, Debye-Ang):
   XX=            -20.0816   YY=            -20.0816   ZZ=            -15.8947
   XY=              0.0000   XZ=              0.0000   YZ=              0.0000

  Exact polarizability:  21.555  -0.000  21.555  -0.000  -0.000  24.279
 Approx polarizability:  29.234  -0.000  29.234  -0.000  -0.000  40.001

 ESP charges:
               1
     1  Br  -0.155105
     2  H    0.155105
 Sum of ESP charges =   0.00000

 Summary of Natural Population Analysis:

                                       Natural Population
                Natural  -----------------------------------------------
    Atom  No    Charge         Core      Valence    Rydberg      Total
 -----------------------------------------------------------------------
     Br    1   -0.10101     13.99967     3.59603    0.00531    17.60101
      H    2    0.10101      0.00000     0.39450    0.00449     0.39899
 =======================================================================
   * Total *   -0.00000     13.99967     3.99053    0.00980    18.00000

                      1
                     SG
 Frequencies --   2614.2970
 Red. masses --      1.0205
 Frc consts  --      4.1095
 IR Inten    --     10.7994

 - Thermochemistry -
 -------------------
 Temperature   298.150 Kelvin.  Pressure   1.00000 Atm.
 Atom     1 has atomic number 35 and mass  78.91834

 Molecular mass:    79.92616 amu.
 Principal axes and moments of inertia in atomic units:
                           1         2         3
     Eigenvalues --     0.00000   7.28846   7.28846
           X            0.00000  -0.00000   1.00000
           Y            0.00000   1.00000   0.00000
           Z            1.00000   0.00000   0.00000
 This molecule is a prolate symmetric top.
 Rotational symmetry number  1.
 Rotational temperature (Kelvin)     11.88371
 Rotational constant (GHZ):         247.616226
 Zero-point vibrational energy      15637.0 (Joules/Mol)
                                    3.73733 (Kcal/Mol)
 Vibrational temperatures:   3761.39
          (Kelvin)

 Zero-point correction=                           0.005956 (Hartree/Particle)
 Thermal correction to Energy=                    0.008316
 Thermal correction to Enthalpy=                  0.009260
 Thermal correction to Gibbs Free Energy=        -0.013280
 Sum of electronic and zero-point Energies=          -2574.757242
 Sum of electronic and thermal Energies=             -2574.754882
 Sum of electronic and thermal Enthalpies=           -2574.753937
 Sum of electronic and thermal Free Energies=        -2574.776478

                     E (Thermal)             CV                S
                      KCal/Mol        Cal/Mol-Kelvin    Cal/Mol-Kelvin
 Total                    5.219              4.969             47.441
 Electronic               0.000              0.000              0.000
 Translational            0.889              2.981             39.050
 Rotational               0.592              1.987              8.391
 Vibrational              3.737              0.001              0.000

 Optimization completed.
    -- Stationary point found.

 1\1\GINC-LC06-3-8\Freq\UB3LYP\Aug-CC-pVDZ\Br1H1\UBUNTU\11-Mar-2019\0\\
 #P Geom=AllCheck Guess=TCheck SCRF=Check GenChk UB3LYP/Aug-CC-pVDZ Fre
 q\\HBr_UB3LYP-aug-cc-pVDZ\\0,1\Br,-0.6789357372,-0.5277,0.004\H,-2.111
 0642628,-0.5277,0.004\\Version=ES64L-G16RevA.03\State=1-SG\HF=-2574.76
 3198\S2=0.\S2-1=0.\S2A=0.\RMSD=1.554e-10\RMSF=2.309e-05\ZeroPoint=0.00
 59558\Thermal=0.0083163\Dipole=-0.3441997,0.,0.\DipoleDeriv=-0.1049932
 ,0.,0.,0.,-0.1271916,0.,0.,0.,-0.1271916,0.1049932,0.,0.,0.,0.1271916,
 0.,0.,0.,0.1271916\Polar=24.2791844,0.,21.5548125,0.,0.,21.5548125\Qua

 Normal termination of Gaussian 16 at Mon Mar 11 18:02:31 2019.
