 Gaussian 16, Revision A.03,
 Gaussian 16:  ES64L-G16RevA.03 25-Dec-2016

 ----------------------------------------------------------------------
 #p opt=(maxcycles=777) freq ub3lyp/aug-cc-pVDZ pop=(Bonding,AllOrbital
 s,mk,no,nboread)
 ----------------------------------------------------------------------

 ----------------------
 HCl_UB3LYP-aug-cc-pVDZ
 ----------------------
 Symbolic Z-matrix:
 Charge =  0 Multiplicity = 1

 SCF Done:  E(UB3LYP) =  -460.827703006     A.U. after    8 cycles
 Optimization completed.
    -- Stationary point found.

 1\1\GINC-LC06-1-2\FOpt\UB3LYP\Aug-CC-pVDZ\Cl1H1\UBUNTU\01-Aug-2020\0\\
 #p opt=(maxcycles=777) freq ub3lyp/aug-cc-pVDZ pop=(Bonding,AllOrbital
 s,mk,no,nboread)\\HCl_UB3LYP-aug-cc-pVDZ\\0,1\Cl,-0.74756,-0.5277,0.00
 4\H,-2.04244,-0.5277,0.004\\Version=ES64L-G16RevA.03\State=1-SG\HF=-46
 0.827703\S2=0.\S2-1=0.\S2A=0.\RMSD=5.718e-10\RMSF=4.487e-05\Dipole=-0.
 453952,0.,0.\Quadrupole=1.8067423,-0.9033711,-0.9033711,0.,0.,0.\PG=C*
 V [C*(H1Cl1)]\\@

 Normal termination of Gaussian 16 at Sat Aug  1 14:41:57 2020.

 ----------------------------------------------------------------------
 #P Geom=AllCheck Guess=TCheck SCRF=Check GenChk UB3LYP/Aug-CC-pVDZ Fre
 q
 ----------------------------------------------------------------------

 Structure from the checkpoint file:  "HCl_UB3LYP-aug-cc-pVDZ-Opt.chk"
 ----------------------
 HCl_UB3LYP-aug-cc-pVDZ
 ----------------------
 Charge =  0 Multiplicity = 1

                         Standard orientation:
 ---------------------------------------------------------------------
 Center     Atomic      Atomic             Coordinates (Angstroms)
 Number     Number       Type             X           Y           Z
 ---------------------------------------------------------------------
      1         17           0        0.000000    0.000000    0.071938
      2          1           0        0.000000    0.000000   -1.222942
 ---------------------------------------------------------------------

 SCF Done:  E(UB3LYP) =  -460.827703006     A.U. after    1 cycles

 Mulliken charges and spin densities:
               1          2
     1  Cl  -0.042010  -0.000000
     2  H    0.042010   0.000000
 Sum of Mulliken charges =  -0.00000   0.00000

 Dipole moment (field-independent basis, Debye):
    X=              0.0000    Y=              0.0000    Z=             -1.1538  Tot=              1.1538
 Quadrupole moment (field-independent basis, Debye-Ang):
   XX=            -14.1501   YY=            -14.1501   ZZ=            -10.5049
   XY=              0.0000   XZ=              0.0000   YZ=              0.0000

  Exact polarizability:  15.593   0.000  15.593  -0.000   0.000  18.117
 Approx polarizability:  20.764  -0.000  20.764  -0.000  -0.000  28.425

 ESP charges:
               1
     1  Cl  -0.210356
     2  H    0.210356
 Sum of ESP charges =   0.00000

 Summary of Natural Population Analysis:

                                       Natural Population
                Natural  -----------------------------------------------
    Atom  No    Charge         Core      Valence    Rydberg      Total
 -----------------------------------------------------------------------
     Cl    1   -0.14169      4.99988     3.63589    0.00592     8.64169
      H    2    0.14169      0.00000     0.35376    0.00455     0.35831
 =======================================================================
   * Total *   -0.00000      4.99988     3.98965    0.01046     9.00000

                      1
                     SG
 Frequencies --   2924.0155
 Red. masses --      1.0360
 Frc consts  --      5.2188
 IR Inten    --     37.8348

 - Thermochemistry -
 -------------------
 Temperature   298.150 Kelvin.  Pressure   1.00000 Atm.
 Atom     1 has atomic number 17 and mass  34.96885

 Molecular mass:    35.97668 amu.
 Principal axes and moments of inertia in atomic units:
                           1         2         3
     Eigenvalues --     0.00000   5.86546   5.86546
           X            0.00000  -0.00000   1.00000
           Y            0.00000   1.00000   0.00000
           Z            1.00000   0.00000   0.00000
 This molecule is a prolate symmetric top.
 Rotational symmetry number  1.
 Rotational temperature (Kelvin)     14.76677
 Rotational constant (GHZ):         307.689505
 Zero-point vibrational energy      17489.5 (Joules/Mol)
                                    4.18009 (Kcal/Mol)
 Vibrational temperatures:   4207.01
          (Kelvin)

 Zero-point correction=                           0.006661 (Hartree/Particle)
 Thermal correction to Energy=                    0.009022
 Thermal correction to Enthalpy=                  0.009966
 Thermal correction to Gibbs Free Energy=        -0.011239
 Sum of electronic and zero-point Energies=           -460.821042
 Sum of electronic and thermal Energies=              -460.818681
 Sum of electronic and thermal Enthalpies=            -460.817737
 Sum of electronic and thermal Free Energies=         -460.838942

                     E (Thermal)             CV                S
                      KCal/Mol        Cal/Mol-Kelvin    Cal/Mol-Kelvin
 Total                    5.661              4.968             44.630
 Electronic               0.000              0.000              0.000
 Translational            0.889              2.981             36.671
 Rotational               0.592              1.987              7.959
 Vibrational              4.180              0.000              0.000

 Optimization completed.
    -- Stationary point found.

 1\1\GINC-LC06-1-2\Freq\UB3LYP\Aug-CC-pVDZ\Cl1H1\UBUNTU\01-Aug-2020\0\\
 #P Geom=AllCheck Guess=TCheck SCRF=Check GenChk UB3LYP/Aug-CC-pVDZ Fre
 q\\HCl_UB3LYP-aug-cc-pVDZ\\0,1\Cl,-0.74756,-0.5277,0.004\H,-2.04244,-0
 .5277,0.004\\Version=ES64L-G16RevA.03\State=1-SG\HF=-460.827703\S2=0.\
 S2-1=0.\S2A=0.\RMSD=0.000e+00\RMSF=4.487e-05\ZeroPoint=0.0066614\Therm
 al=0.0090219\Dipole=-0.453952,0.,0.\DipoleDeriv=-0.1949813,0.,0.,0.,-0
 .1855148,0.,0.,0.,-0.1855148,0.1949813,0.,0.,0.,0.1855148,0.,0.,0.,0.1
 855148\Polar=18.116621,0.,15.5931939,0.,0.,15.5931939\Quadrupole=1.806

 Normal termination of Gaussian 16 at Sat Aug  1 14:42:00 2020.
