 Gaussian 16, Revision A.03,
 Gaussian 16:  ES64L-G16RevA.03 25-Dec-2016

 ----------------------------------------------------------------------
 #p opt=(maxcycles=777) freq ub3lyp/aug-cc-pVDZ pop=(Bonding,AllOrbital
 s,mk,no,nboread)
 ----------------------------------------------------------------------

 ------------------------
 HCOO-_UB3LYP-aug-cc-pVDZ
 ------------------------
 Symbolic Z-matrix:
 Charge = -1 Multiplicity = 1

 SCF Done:  E(UB3LYP) =  -189.237925249     A.U. after   12 cycles
 SCF Done:  E(UB3LYP) =  -189.240381845     A.U. after   11 cycles
 SCF Done:  E(UB3LYP) =  -189.239978933     A.U. after   10 cycles
 SCF Done:  E(UB3LYP) =  -189.239559653     A.U. after   11 cycles
 SCF Done:  E(UB3LYP) =  -189.239043463     A.U. after   11 cycles
 SCF Done:  E(UB3LYP) =  -189.240440957     A.U. after    8 cycles
 SCF Done:  E(UB3LYP) =  -189.240523555     A.U. after   10 cycles
 Optimization completed.
    -- Stationary point found.
 Normal termination of Gaussian 16 at Mon Aug  3 15:41:00 2020.

 ----------------------------------------------------------------------
 #P Geom=AllCheck Guess=TCheck SCRF=Check GenChk UB3LYP/Aug-CC-pVDZ Fre
 q
 ----------------------------------------------------------------------

 Structure from the checkpoint file:  "HCOO-_UB3LYP-aug-cc-pVDZ-Opt.chk"
 ------------------------
 HCOO-_UB3LYP-aug-cc-pVDZ
 ------------------------
 Charge = -1 Multiplicity = 1

                         Standard orientation:
 ---------------------------------------------------------------------
 Center     Atomic      Atomic             Coordinates (Angstroms)
 Number     Number       Type             X           Y           Z
 ---------------------------------------------------------------------
      1          6           0        0.000017    0.319170   -0.000215
      2          8           0        1.140918   -0.211005    0.000055
      3          8           0       -1.140915   -0.211022    0.000055
      4          1           0       -0.000126    1.461200    0.000409
 ---------------------------------------------------------------------

 SCF Done:  E(UB3LYP) =  -189.240523555     A.U. after    1 cycles

 Mulliken charges and spin densities:
               1          2
     1  C    0.734593   0.000000
     2  O   -0.639595  -0.000000
     3  O   -0.639654  -0.000000
     4  H   -0.455344  -0.000000
 Sum of Mulliken charges =  -1.00000  -0.00000

 Dipole moment (field-independent basis, Debye):
    X=              0.0002    Y=              1.3859    Z=             -0.0002  Tot=              1.3859
 Quadrupole moment (field-independent basis, Debye-Ang):
   XX=            -29.8466   YY=            -21.6057   ZZ=            -19.4294
   XY=             -0.0002   XZ=             -0.0000   YZ=              0.0000

  Exact polarizability:  40.965   0.000  38.530  -0.000   0.002  22.586
 Approx polarizability:  58.656  -0.000  46.715  -0.000   0.001  28.677

 ESP charges:
               1
     1  C    0.873364
     2  O   -0.824434
     3  O   -0.823515
     4  H   -0.225415
 Sum of ESP charges =  -1.00000

 Summary of Natural Population Analysis:

                                       Natural Population
                Natural  -----------------------------------------------
    Atom  No    Charge         Core      Valence    Rydberg      Total
 -----------------------------------------------------------------------
      C    1    0.33071      0.99984     1.64321    0.02624     2.66929
      O    2   -0.41018      0.99989     3.39406    0.01622     4.41018
      O    3   -0.41019      0.99989     3.39408    0.01622     4.41019
      H    4   -0.01034      0.00000     0.50102    0.00931     0.51034
 =======================================================================
   * Total *   -0.50000      2.99962     8.93238    0.06799    12.00000

                      1                      2                      3
                      A                      A                      A
 Frequencies --    732.2225              1030.8513              1330.5136
 Red. masses --     11.6498                 1.8503                11.6890
 Frc consts  --      3.6801                 1.1585                12.1917
 IR Inten    --     21.5655                 1.0579               136.9880

                      4                      5                      6
                      A                      A                      A
 Frequencies --   1354.9423              1645.7568              2590.2323
 Red. masses --      1.0948                11.1063                 1.0635
 Frc consts  --      1.1842                17.7235                 4.2039
 IR Inten    --     11.5340               837.1853               599.3472

 - Thermochemistry -
 -------------------
 Temperature   298.150 Kelvin.  Pressure   1.00000 Atm.
 Atom     1 has atomic number  6 and mass  12.00000

 Molecular mass:    44.99765 amu.
 Principal axes and moments of inertia in atomic units:
                           1         2         3
     Eigenvalues --    16.96997 148.70228 165.67225
           X            1.00000  -0.00001  -0.00000
           Y            0.00001   1.00000   0.00013
           Z            0.00000  -0.00013   1.00000
 This molecule is an asymmetric top.
 Rotational symmetry number  1.
 Rotational temperatures (Kelvin)      5.10395     0.58247     0.52280
 Rotational constants (GHZ):         106.34911    12.13661    10.89344
 Zero-point vibrational energy      51945.0 (Joules/Mol)
                                   12.41514 (Kcal/Mol)
 Vibrational temperatures:   1053.50  1483.17  1914.31  1949.46  2367.88
          (Kelvin)           3726.77

 Zero-point correction=                           0.019785 (Hartree/Particle)
 Thermal correction to Energy=                    0.022772
 Thermal correction to Enthalpy=                  0.023716
 Thermal correction to Gibbs Free Energy=        -0.004034
 Sum of electronic and zero-point Energies=           -189.220739
 Sum of electronic and thermal Energies=              -189.217752
 Sum of electronic and thermal Enthalpies=            -189.216807
 Sum of electronic and thermal Free Energies=         -189.244558

                     E (Thermal)             CV                S
                      KCal/Mol        Cal/Mol-Kelvin    Cal/Mol-Kelvin
 Total                   14.290              7.378             58.406
 Electronic               0.000              0.000              0.000
 Translational            0.889              2.981             37.338
 Rotational               0.889              2.981             20.663
 Vibrational             12.512              1.416              0.405

 Optimization completed.
    -- Stationary point found.
 Normal termination of Gaussian 16 at Mon Aug  3 15:41:17 2020.
