 Gaussian 16, Revision A.03,
 Gaussian 16:  ES64L-G16RevA.03 25-Dec-2016

 ----------------------------------------------------------------------
 #p opt=(maxcycles=777) freq ub3lyp/aug-cc-pVDZ pop=(Bonding,AllOrbital
 s,mk,no,nboread)
 ----------------------------------------------------------------------

 ---------------------
 HF_UB3LYP-aug-cc-pVDZ
 ---------------------
 Symbolic Z-matrix:
 Charge =  0 Multiplicity = 1

 SCF Done:  E(UB3LYP) =  -100.394028702     A.U. after    9 cycles
 SCF Done:  E(UB3LYP) =  -100.431391961     A.U. after    8 cycles
 SCF Done:  E(UB3LYP) =  -100.460651768     A.U. after    8 cycles
 SCF Done:  E(UB3LYP) =  -100.460761498     A.U. after    7 cycles
 SCF Done:  E(UB3LYP) =  -100.460761790     A.U. after    6 cycles
 Optimization completed.
    -- Stationary point found.
 Normal termination of Gaussian 16 at Sat Jan  1 18:25:39 2005.

 ----------------------------------------------------------------------
 #P Geom=AllCheck Guess=TCheck SCRF=Check GenChk UB3LYP/Aug-CC-pVDZ Fre
 q
 ----------------------------------------------------------------------

 Structure from the checkpoint file:  "HF_UB3LYP-aug-cc-pVDZ-Opt.chk"
 ---------------------
 HF_UB3LYP-aug-cc-pVDZ
 ---------------------
 Charge =  0 Multiplicity = 1

                         Standard orientation:
 ---------------------------------------------------------------------
 Center     Atomic      Atomic             Coordinates (Angstroms)
 Number     Number       Type             X           Y           Z
 ---------------------------------------------------------------------
      1          9           0        0.000000    0.000000    0.092568
      2          1           0       -0.000000    0.000000   -0.833110
 ---------------------------------------------------------------------

 SCF Done:  E(UB3LYP) =  -100.460761790     A.U. after    1 cycles

 Mulliken charges and spin densities:
               1          2
     1  F   -0.260111  -0.000000
     2  H    0.260111   0.000000
 Sum of Mulliken charges =  -0.00000  -0.00000

 Dipole moment (field-independent basis, Debye):
    X=             -0.0000    Y=              0.0000    Z=             -1.8026  Tot=              1.8026
 Quadrupole moment (field-independent basis, Debye-Ang):
   XX=             -5.9281   YY=             -5.9281   ZZ=             -3.8159
   XY=              0.0000   XZ=             -0.0000   YZ=              0.0000

  Exact polarizability:   4.483   0.000   4.483  -0.000  -0.000   6.516
 Approx polarizability:   4.856   0.000   4.856  -0.000   0.000   8.247

 ESP charges:
               1
     1  F   -0.410954
     2  H    0.410954
 Sum of ESP charges =  -0.00000

 Summary of Natural Population Analysis:

                                       Natural Population
                Natural  -----------------------------------------------
    Atom  No    Charge         Core      Valence    Rydberg      Total
 -----------------------------------------------------------------------
      F    1   -0.28314      0.99998     3.77774    0.00542     4.78314
      H    2    0.28314      0.00000     0.21383    0.00304     0.21686
 =======================================================================
   * Total *    0.00000      0.99998     3.99156    0.00845     5.00000

                      1
                     SG
 Frequencies --   4061.9801
 Red. masses --      1.0583
 Frc consts  --     10.2882
 IR Inten    --    111.3119

 - Thermochemistry -
 -------------------
 Temperature   298.150 Kelvin.  Pressure   1.00000 Atm.
 Atom     1 has atomic number  9 and mass  18.99840

 Molecular mass:    20.00623 amu.
 Principal axes and moments of inertia in atomic units:
                           1         2         3
     Eigenvalues --     0.00000   2.92856   2.92856
           X           -0.00000  -0.00000   1.00000
           Y            0.00000   1.00000   0.00000
           Z            1.00000  -0.00000   0.00000
 This molecule is a prolate symmetric top.
 Rotational symmetry number  1.
 Rotational temperature (Kelvin)     29.57557
 Rotational constant (GHZ):         616.254819
 Zero-point vibrational energy      24296.0 (Joules/Mol)
                                    5.80689 (Kcal/Mol)
 Vibrational temperatures:   5844.28
          (Kelvin)

 Zero-point correction=                           0.009254 (Hartree/Particle)
 Thermal correction to Energy=                    0.011614
 Thermal correction to Enthalpy=                  0.012559
 Thermal correction to Gibbs Free Energy=        -0.007160
 Sum of electronic and zero-point Energies=           -100.451508
 Sum of electronic and thermal Energies=              -100.449147
 Sum of electronic and thermal Enthalpies=            -100.448203
 Sum of electronic and thermal Free Energies=         -100.467921

                     E (Thermal)             CV                S
                      KCal/Mol        Cal/Mol-Kelvin    Cal/Mol-Kelvin
 Total                    7.288              4.968             41.500
 Electronic               0.000              0.000              0.000
 Translational            0.889              2.981             34.922
 Rotational               0.592              1.987              6.579
 Vibrational              5.807              0.000              0.000

 Optimization completed.
    -- Stationary point found.
 Normal termination of Gaussian 16 at Sat Jan  1 18:25:42 2005.
