 Gaussian 16, Revision A.03,
 Gaussian 16:  ES64L-G16RevA.03 25-Dec-2016

 ----------------------------------------------------------------------
 #p opt=(maxcycles=777) freq ub3lyp/aug-cc-pVDZ pop=(Bonding,AllOrbital
 s,mk,no,nboread)
 ----------------------------------------------------------------------

 -----------------------
 HNO3_UB3LYP-aug-cc-pVDZ
 -----------------------
 Symbolic Z-matrix:
 Charge =  0 Multiplicity = 1

 SCF Done:  E(UB3LYP) =  -280.934021830     A.U. after   11 cycles
 SCF Done:  E(UB3LYP) =  -280.939110911     A.U. after   11 cycles
 SCF Done:  E(UB3LYP) =  -280.940080078     A.U. after   10 cycles
 SCF Done:  E(UB3LYP) =  -280.940224797     A.U. after   10 cycles
 SCF Done:  E(UB3LYP) =  -280.940264158     A.U. after   10 cycles
 SCF Done:  E(UB3LYP) =  -280.940267059     A.U. after    9 cycles
 SCF Done:  E(UB3LYP) =  -280.940267392     A.U. after    8 cycles
 Optimization completed.
    -- Stationary point found.
 Normal termination of Gaussian 16 at Sat Aug  1 14:45:38 2020.

 ----------------------------------------------------------------------
 #P Geom=AllCheck Guess=TCheck SCRF=Check GenChk UB3LYP/Aug-CC-pVDZ Fre
 q
 ----------------------------------------------------------------------

 Structure from the checkpoint file:  "HNO3_UB3LYP-aug-cc-pVDZ-Opt.chk"
 -----------------------
 HNO3_UB3LYP-aug-cc-pVDZ
 -----------------------
 Charge =  0 Multiplicity = 1

                         Standard orientation:
 ---------------------------------------------------------------------
 Center     Atomic      Atomic             Coordinates (Angstroms)
 Number     Number       Type             X           Y           Z
 ---------------------------------------------------------------------
      1          7           0        0.000000    0.152989    0.000000
      2          8           0        1.174094    0.464185    0.000000
      3          8           0       -0.985096    0.837758    0.000000
      4          8           0       -0.266878   -1.232164    0.000000
      5          1           0        0.623039   -1.629160    0.000000
 ---------------------------------------------------------------------

 SCF Done:  E(UB3LYP) =  -280.940267392     A.U. after    1 cycles

 Mulliken charges and spin densities:
               1          2
     1  N    1.118820   0.000000
     2  O   -0.477522  -0.000000
     3  O   -0.453362  -0.000000
     4  O   -0.333027  -0.000000
     5  H    0.145091   0.000000
 Sum of Mulliken charges =   0.00000   0.00000

 Dipole moment (field-independent basis, Debye):
    X=              1.0732    Y=             -2.0504    Z=              0.0000  Tot=              2.3142
 Quadrupole moment (field-independent basis, Debye-Ang):
   XX=            -24.4650   YY=            -20.7243   ZZ=            -21.3109
   XY=             -2.4309   XZ=              0.0000   YZ=              0.0000

  Exact polarizability:  31.596  -1.673  29.806   0.000  -0.000  16.117
 Approx polarizability:  60.920  -4.441  45.005  -0.000  -0.000  21.836

 ESP charges:
               1
     1  N    0.718391
     2  O   -0.372761
     3  O   -0.300097
     4  O   -0.439761
     5  H    0.394228
 Sum of ESP charges =   0.00000

 Summary of Natural Population Analysis:

                                       Natural Population
                Natural  -----------------------------------------------
    Atom  No    Charge         Core      Valence    Rydberg      Total
 -----------------------------------------------------------------------
      N    1    0.36290      0.99984     2.11327    0.02399     3.13710
      O    2   -0.18618      0.99988     3.17165    0.01465     4.18618
      O    3   -0.15889      0.99987     3.14378    0.01524     4.15889
      O    4   -0.27035      0.99991     3.25632    0.01412     4.27035
      H    5    0.25252      0.00000     0.24447    0.00301     0.24748
 =======================================================================
   * Total *    0.00000      3.99950    11.92949    0.07101    16.00000

                      1                      2                      3
                     A"                     A'                     A'
 Frequencies --    500.1793               580.0639               648.3244
 Red. masses --      1.1043                 5.3821                13.4028
 Frc consts  --      0.1628                 1.0670                 3.3192
 IR Inten    --    115.5335                 7.3423                10.9845

                      4                      5                      6
                     A"                     A'                     A'
 Frequencies --    774.9018               897.8612              1325.0408
 Red. masses --     14.1562                14.9296                 1.6486
 Frc consts  --      5.0083                 7.0911                 1.7054
 IR Inten    --      9.0876               179.8987                45.0455

                      7                      8                      9
                     A'                     A'                     A'
 Frequencies --   1352.3972              1761.6090              3710.7098
 Red. masses --      4.4114                 6.8363                 1.0662
 Frc consts  --      4.7537                12.4995                 8.6497
 IR Inten    --    303.4267               401.1590                93.5444

 - Thermochemistry -
 -------------------
 Temperature   298.150 Kelvin.  Pressure   1.00000 Atm.
 Atom     1 has atomic number  7 and mass  14.00307

 Molecular mass:    62.99564 amu.
 Principal axes and moments of inertia in atomic units:
                           1         2         3
     Eigenvalues --   139.54399 149.75639 289.30038
           X           -0.08082   0.99673   0.00000
           Y            0.99673   0.08082   0.00000
           Z           -0.00000   0.00000   1.00000
 This molecule is an asymmetric top.
 Rotational symmetry number  1.
 Rotational temperatures (Kelvin)      0.62069     0.57837     0.29939
 Rotational constants (GHZ):          12.93313    12.05118     6.23830
 Zero-point vibrational energy      69090.8 (Joules/Mol)
                                   16.51311 (Kcal/Mol)
 Warning -- explicit consideration of   2 degrees of freedom as
           vibrations may cause significant error
 Vibrational temperatures:    719.65   834.58   932.79  1114.91  1291.82
          (Kelvin)           1906.44  1945.80  2534.56  5338.88

 Zero-point correction=                           0.026315 (Hartree/Particle)
 Thermal correction to Energy=                    0.029840
 Thermal correction to Enthalpy=                  0.030784
 Thermal correction to Gibbs Free Energy=         0.000568
 Sum of electronic and zero-point Energies=           -280.913952
 Sum of electronic and thermal Energies=              -280.910428
 Sum of electronic and thermal Enthalpies=            -280.909484
 Sum of electronic and thermal Free Energies=         -280.939700

                     E (Thermal)             CV                S
                      KCal/Mol        Cal/Mol-Kelvin    Cal/Mol-Kelvin
 Total                   18.725             10.703             63.595
 Electronic               0.000              0.000              0.000
 Translational            0.889              2.981             38.341
 Rotational               0.889              2.981             23.318
 Vibrational             16.947              4.741              1.936
 Vibration     1          0.856              1.250              0.658
 Vibration     2          0.937              1.074              0.485

 Optimization completed.
    -- Stationary point found.
 Normal termination of Gaussian 16 at Sat Aug  1 14:46:04 2020.
