 Gaussian 16, Revision A.03,
 Gaussian 16:  ES64L-G16RevA.03 25-Dec-2016

 ----------------------------------------------------------------------
 #p opt=(maxcycles=777) freq ub3lyp/aug-cc-pVDZ pop=(Bonding,AllOrbital
 s,mk,no,nboread)
 ----------------------------------------------------------------------

 ----------------------
 HO-_UB3LYP-aug-cc-pVDZ
 ----------------------
 Symbolic Z-matrix:
 Charge = -1 Multiplicity = 1

 SCF Done:  E(UB3LYP) =  -75.7978678479     A.U. after   12 cycles
 SCF Done:  E(UB3LYP) =  -75.8166128509     A.U. after    9 cycles
 SCF Done:  E(UB3LYP) =  -75.8169334276     A.U. after    8 cycles
 SCF Done:  E(UB3LYP) =  -75.8169339767     A.U. after    6 cycles
 Optimization completed.
    -- Stationary point found.
 Normal termination of Gaussian 16 at Mon Aug  3 15:50:35 2020.

 ----------------------------------------------------------------------
 #P Geom=AllCheck Guess=TCheck SCRF=Check GenChk UB3LYP/Aug-CC-pVDZ Fre
 q
 ----------------------------------------------------------------------

 Structure from the checkpoint file:  "HO-_UB3LYP-aug-cc-pVDZ-Opt.chk"
 ----------------------
 HO-_UB3LYP-aug-cc-pVDZ
 ----------------------
 Charge = -1 Multiplicity = 1

                         Standard orientation:
 ---------------------------------------------------------------------
 Center     Atomic      Atomic             Coordinates (Angstroms)
 Number     Number       Type             X           Y           Z
 ---------------------------------------------------------------------
      1          8           0       -0.000000    0.000000    0.107740
      2          1           0        0.000000   -0.000000   -0.861917
 ---------------------------------------------------------------------

 SCF Done:  E(UB3LYP) =  -75.8169339767     A.U. after    1 cycles

 Mulliken charges and spin densities:
               1          2
     1  O   -0.941717  -0.000000
     2  H   -0.058283   0.000000
 Sum of Mulliken charges =  -1.00000   0.00000

 Dipole moment (field-independent basis, Debye):
    X=              0.0000    Y=              0.0000    Z=             -1.4090  Tot=              1.4090
 Quadrupole moment (field-independent basis, Debye-Ang):
   XX=            -10.8505   YY=            -10.8505   ZZ=             -8.4700
   XY=              0.0000   XZ=              0.0000   YZ=              0.0000

  Exact polarizability:  24.914  -0.000  24.914   0.000  -0.000  18.344
 Approx polarizability:  22.946   0.000  22.946   0.000   0.000  22.806

 ESP charges:
               1
     1  O   -1.191572
     2  H    0.191572
 Sum of ESP charges =  -1.00000

 Summary of Natural Population Analysis:

                                       Natural Population
                Natural  -----------------------------------------------
    Atom  No    Charge         Core      Valence    Rydberg      Total
 -----------------------------------------------------------------------
      O    1   -0.69311      0.99997     3.68624    0.00690     4.69311
      H    2    0.19311      0.00000     0.30183    0.00506     0.30689
 =======================================================================
   * Total *   -0.50000      0.99997     3.98808    0.01196     5.00000

                      1
                     SG
 Frequencies --   3734.6103
 Red. masses --      1.0671
 Frc consts  --      8.7688
 IR Inten    --     83.0771

 - Thermochemistry -
 -------------------
 Temperature   298.150 Kelvin.  Pressure   1.00000 Atm.
 Atom     1 has atomic number  8 and mass  15.99491

 Molecular mass:    17.00274 amu.
 Principal axes and moments of inertia in atomic units:
                           1         2         3
     Eigenvalues --    -0.00000   3.18333   3.18333
           X            0.00000   0.88850  -0.45888
           Y            0.00000   0.45888   0.88850
           Z            1.00000  -0.00000  -0.00000
 This molecule is a prolate symmetric top.
 Rotational symmetry number  1.
 Rotational temperature (Kelvin)     27.20858
 Rotational constant (GHZ):         566.934724
 Zero-point vibrational energy      22337.9 (Joules/Mol)
                                    5.33889 (Kcal/Mol)
 Vibrational temperatures:   5373.27
          (Kelvin)

 Zero-point correction=                           0.008508 (Hartree/Particle)
 Thermal correction to Energy=                    0.010869
 Thermal correction to Enthalpy=                  0.011813
 Thermal correction to Gibbs Free Energy=        -0.007754
 Sum of electronic and zero-point Energies=            -75.808426
 Sum of electronic and thermal Energies=               -75.806065
 Sum of electronic and thermal Enthalpies=             -75.805121
 Sum of electronic and thermal Free Energies=          -75.824688

                     E (Thermal)             CV                S
                      KCal/Mol        Cal/Mol-Kelvin    Cal/Mol-Kelvin
 Total                    6.820              4.968             41.181
 Electronic               0.000              0.000              0.000
 Translational            0.889              2.981             34.437
 Rotational               0.592              1.987              6.745
 Vibrational              5.339              0.000              0.000

 Optimization completed.
    -- Stationary point found.
 Normal termination of Gaussian 16 at Mon Aug  3 15:50:38 2020.
