 Gaussian 16, Revision A.03,
 Gaussian 16:  ES64L-G16RevA.03 25-Dec-2016

 ----------------------------------------------------------------------
 #p opt=(maxcycles=777) freq ub3lyp/aug-cc-pVDZ pop=(Bonding,AllOrbital
 s,mk,no,nboread)
 ----------------------------------------------------------------------

 -----------------------
 HOAc_UB3LYP-aug-cc-pVDZ
 -----------------------
 Symbolic Z-matrix:
 Charge =  0 Multiplicity = 1

 SCF Done:  E(UB3LYP) =  -229.124611512     A.U. after   11 cycles
 SCF Done:  E(UB3LYP) =  -229.124612526     A.U. after    8 cycles
 SCF Done:  E(UB3LYP) =  -229.124611489     A.U. after    8 cycles
 SCF Done:  E(UB3LYP) =  -229.124612651     A.U. after    7 cycles
 Optimization completed.
    -- Stationary point found.
 Normal termination of Gaussian 16 at Sat Aug  1 14:55:51 2020.

 ----------------------------------------------------------------------
 #P Geom=AllCheck Guess=TCheck SCRF=Check GenChk UB3LYP/Aug-CC-pVDZ Fre
 q
 ----------------------------------------------------------------------

 Structure from the checkpoint file:  "HOAc_UB3LYP-aug-cc-pVDZ-Opt.chk"
 -----------------------
 HOAc_UB3LYP-aug-cc-pVDZ
 -----------------------
 Charge =  0 Multiplicity = 1

                         Standard orientation:
 ---------------------------------------------------------------------
 Center     Atomic      Atomic             Coordinates (Angstroms)
 Number     Number       Type             X           Y           Z
 ---------------------------------------------------------------------
      1          6           0       -1.395716   -0.124108   -0.000010
      2          1           0       -1.926128    0.831855   -0.003159
      3          1           0       -1.674021   -0.709829    0.886533
      4          1           0       -1.673010   -0.714933   -0.883317
      5          6           0        0.087807    0.126278    0.000067
      6          8           0        0.628841    1.209369   -0.000009
      7          8           0        0.794418   -1.037605   -0.000091
      8          1           0        1.734544   -0.794220    0.000406
 ---------------------------------------------------------------------

 SCF Done:  E(UB3LYP) =  -229.124612651     A.U. after    1 cycles

 Mulliken charges and spin densities:
               1          2
     1  C    0.706724  -0.000000
     2  H   -0.199154   0.000000
     3  H   -0.152585  -0.000000
     4  H   -0.153243   0.000000
     5  C    0.561462   0.000000
     6  O   -0.491738  -0.000000
     7  O   -0.392362  -0.000000
     8  H    0.120896   0.000000
 Sum of Mulliken charges =   0.00000  -0.00000

 Dipole moment (field-independent basis, Debye):
    X=             -0.8327    Y=             -1.6005    Z=              0.0011  Tot=              1.8042
 Quadrupole moment (field-independent basis, Debye-Ang):
   XX=            -19.4116   YY=            -28.9029   ZZ=            -23.4320
   XY=             -2.1984   XZ=              0.0014   YZ=             -0.0013

  Exact polarizability:  39.558   0.833  37.837  -0.002  -0.001  26.697
 Approx polarizability:  49.132   3.007  57.123  -0.004  -0.003  37.129

 ESP charges:
               1
     1  C   -0.392097
     2  H    0.117197
     3  H    0.131493
     4  H    0.131525
     5  C    0.759350
     6  O   -0.561697
     7  O   -0.584213
     8  H    0.398442
 Sum of ESP charges =   0.00000

 Summary of Natural Population Analysis:

                                       Natural Population
                Natural  -----------------------------------------------
    Atom  No    Charge         Core      Valence    Rydberg      Total
 -----------------------------------------------------------------------
      C    1   -0.36707      0.99962     2.36193    0.00552     3.36707
      H    2    0.12397      0.00000     0.37436    0.00167     0.37603
      H    3    0.12492      0.00000     0.37367    0.00141     0.37508
      H    4    0.12489      0.00000     0.37370    0.00141     0.37511
      C    5    0.42124      0.99970     1.55941    0.01965     2.57876
      O    6   -0.31299      0.99988     3.29735    0.01577     4.31299
      O    7   -0.36685      0.99988     3.35468    0.01229     4.36685
      H    8    0.25191      0.00000     0.24442    0.00367     0.24809
 =======================================================================
   * Total *   -0.00000      3.99908    11.93952    0.06139    16.00000

                      1                      2                      3
                      A                      A                      A
 Frequencies --     74.7404               420.7484               551.2352
 Red. masses --      1.0859                 2.8868                 1.5691
 Frc consts  --      0.0036                 0.3011                 0.2809
 IR Inten    --      0.2084                 4.6329                21.0983

                      4                      5                      6
                      A                      A                      A
 Frequencies --    580.1724               662.4807               860.3305
 Red. masses --      4.3175                 1.4676                 3.9696
 Frc consts  --      0.8562                 0.3795                 1.7311
 IR Inten    --     37.6131                94.0504                 3.8452

                      7                      8                      9
                      A                      A                      A
 Frequencies --    990.4619              1052.8095              1206.1253
 Red. masses --      1.6072                 1.8330                 2.0057
 Frc consts  --      0.9290                 1.1970                 1.7191
 IR Inten    --     64.1781                 6.6520               220.8532

                     10                     11                     12
                      A                      A                      A
 Frequencies --   1327.4989              1392.1309              1442.9201
 Red. masses --      1.5972                 1.6717                 1.0527
 Frc consts  --      1.6584                 1.9088                 1.2913
 IR Inten    --     19.3825                59.5690                14.9047

                     13                     14                     15
                      A                      A                      A
 Frequencies --   1449.5433              1808.1008              3054.5512
 Red. masses --      1.0447                 9.0463                 1.0369
 Frc consts  --      1.2933                17.4247                 5.7001
 IR Inten    --      8.3111               337.2304                 1.7446

                     16                     17                     18
                      A                      A                      A
 Frequencies --   3121.0377              3172.3561              3741.9120
 Red. masses --      1.0998                 1.1035                 1.0644
 Frc consts  --      6.3118                 6.5434                 8.7808
 IR Inten    --      3.7519                 4.6249                60.6431

 - Thermochemistry -
 -------------------
 Temperature   298.150 Kelvin.  Pressure   1.00000 Atm.
 Atom     1 has atomic number  6 and mass  12.00000

 Molecular mass:    60.02113 amu.
 Principal axes and moments of inertia in atomic units:
                           1         2         3
     Eigenvalues --   160.21155 191.79501 340.73303
           X            0.99832  -0.05786   0.00001
           Y            0.05786   0.99832  -0.00002
           Z           -0.00001   0.00002   1.00000
 This molecule is an asymmetric top.
 Rotational symmetry number  1.
 Rotational temperatures (Kelvin)      0.54062     0.45160     0.25420
 Rotational constants (GHZ):          11.26474     9.40974     5.29664
 Zero-point vibrational energy     160952.5 (Joules/Mol)
                                   38.46857 (Kcal/Mol)
 Warning -- explicit consideration of   4 degrees of freedom as
           vibrations may cause significant error
 Vibrational temperatures:    107.53   605.36   793.10   834.74   953.16
          (Kelvin)           1237.82  1425.05  1514.76  1735.35  1909.97
                             2002.97  2076.04  2085.57  2601.45  4394.82
                             4490.48  4564.31  5383.78

 Zero-point correction=                           0.061304 (Hartree/Particle)
 Thermal correction to Energy=                    0.065877
 Thermal correction to Enthalpy=                  0.066821
 Thermal correction to Gibbs Free Energy=         0.034129
 Sum of electronic and zero-point Energies=           -229.063309
 Sum of electronic and thermal Energies=              -229.058735
 Sum of electronic and thermal Enthalpies=            -229.057791
 Sum of electronic and thermal Free Energies=         -229.090483

                     E (Thermal)             CV                S
                      KCal/Mol        Cal/Mol-Kelvin    Cal/Mol-Kelvin
 Total                   41.339             14.384             68.806
 Electronic               0.000              0.000              0.000
 Translational            0.889              2.981             38.196
 Rotational               0.889              2.981             23.863
 Vibrational             39.561              8.422              6.746
 Vibration     1          0.599              1.966              4.024
 Vibration     2          0.783              1.425              0.889
 Vibration     3          0.907              1.137              0.542
 Vibration     4          0.937              1.074              0.485

                           ! Non-Optimized Parameters !
 Normal termination of Gaussian 16 at Sat Aug  1 14:57:25 2020.
