 Gaussian 16, Revision A.03,
 Gaussian 16:  ES64L-G16RevA.03 25-Dec-2016

 ----------------------------------------------------------------------
 #p opt=(maxcycles=777) freq ub3lyp/aug-cc-pVDZ pop=(Bonding,AllOrbital
 s,mk,no,nboread)
 ----------------------------------------------------------------------

 ----------------------
 HOH_UB3LYP-aug-cc-pVDZ
 ----------------------
 Symbolic Z-matrix:
 Charge =  0 Multiplicity = 1

 SCF Done:  E(UB3LYP) =  -76.4444877621     A.U. after    8 cycles
 SCF Done:  E(UB3LYP) =  -76.4446418779     A.U. after    8 cycles
 SCF Done:  E(UB3LYP) =  -76.4446435699     A.U. after    6 cycles
 Optimization completed.
    -- Stationary point found.
 Normal termination of Gaussian 16 at Mon Aug  3 15:43:51 2020.

 ----------------------------------------------------------------------
 #P Geom=AllCheck Guess=TCheck SCRF=Check GenChk UB3LYP/Aug-CC-pVDZ Fre
 q
 ----------------------------------------------------------------------

 Structure from the checkpoint file:  "HOH_UB3LYP-aug-cc-pVDZ-Opt.chk"
 ----------------------
 HOH_UB3LYP-aug-cc-pVDZ
 ----------------------
 Charge =  0 Multiplicity = 1

                         Standard orientation:
 ---------------------------------------------------------------------
 Center     Atomic      Atomic             Coordinates (Angstroms)
 Number     Number       Type             X           Y           Z
 ---------------------------------------------------------------------
      1          8           0       -0.000000    0.117780   -0.000000
      2          1           0        0.764204   -0.471060    0.000000
      3          1           0       -0.764204   -0.471177   -0.000000
 ---------------------------------------------------------------------

 SCF Done:  E(UB3LYP) =  -76.4446435699     A.U. after    1 cycles

 Mulliken charges and spin densities:
               1          2
     1  O   -0.166791  -0.000000
     2  H    0.083359   0.000000
     3  H    0.083432   0.000000
 Sum of Mulliken charges =  -0.00000  -0.00000

 Dipole moment (field-independent basis, Debye):
    X=              0.0000    Y=             -1.8535    Z=              0.0000  Tot=              1.8535
 Quadrupole moment (field-independent basis, Debye-Ang):
   XX=             -4.5284   YY=             -6.5204   ZZ=             -7.8192
   XY=              0.0002   XZ=             -0.0000   YZ=              0.0000

  Exact polarizability:  10.170   0.000   9.343  -0.000   0.000   8.903
 Approx polarizability:  12.861   0.001  11.641  -0.000   0.000   9.683

 ESP charges:
               1
     1  O   -0.679877
     2  H    0.341788
     3  H    0.338090
 Sum of ESP charges =   0.00000

 Summary of Natural Population Analysis:

                                       Natural Population
                Natural  -----------------------------------------------
    Atom  No    Charge         Core      Valence    Rydberg      Total
 -----------------------------------------------------------------------
      O    1   -0.47882      0.99994     3.46927    0.00960     4.47882
      H    2    0.23941      0.00000     0.25657    0.00403     0.26059
      H    3    0.23941      0.00000     0.25656    0.00403     0.26059
 =======================================================================
   * Total *   -0.00000      0.99994     3.98240    0.01765     5.00000

                      1                      2                      3
                     A'                     A'                     A'
 Frequencies --   1618.3821              3795.4613              3905.4027
 Red. masses --      1.0828                 1.0450                 1.0821
 Frc consts  --      1.6710                 8.8697                 9.7243
 IR Inten    --     71.3742                 4.0576                60.6882

 - Thermochemistry -
 -------------------
 Temperature   298.150 Kelvin.  Pressure   1.00000 Atm.
 Atom     1 has atomic number  8 and mass  15.99491

 Molecular mass:    18.01056 amu.
 Principal axes and moments of inertia in atomic units:
                           1         2         3
     Eigenvalues --     2.21691   4.20370   6.42060
           X            1.00000  -0.00016   0.00000
           Y            0.00016   1.00000  -0.00000
           Z           -0.00000   0.00000   1.00000
 This molecule is an asymmetric top.
 Rotational symmetry number  1.
 Rotational temperatures (Kelvin)     39.06974    20.60422    13.49000
 Rotational constants (GHZ):         814.08130   429.32226   281.08591
 Zero-point vibrational energy      55741.5 (Joules/Mol)
                                   13.32253 (Kcal/Mol)
 Vibrational temperatures:   2328.49  5460.82  5619.00
          (Kelvin)

 Zero-point correction=                           0.021231 (Hartree/Particle)
 Thermal correction to Energy=                    0.024066
 Thermal correction to Enthalpy=                  0.025011
 Thermal correction to Gibbs Free Energy=         0.002925
 Sum of electronic and zero-point Energies=            -76.423413
 Sum of electronic and thermal Energies=               -76.420577
 Sum of electronic and thermal Enthalpies=             -76.419633
 Sum of electronic and thermal Free Energies=          -76.441719

                     E (Thermal)             CV                S
                      KCal/Mol        Cal/Mol-Kelvin    Cal/Mol-Kelvin
 Total                   15.102              6.011             46.484
 Electronic               0.000              0.000              0.000
 Translational            0.889              2.981             34.608
 Rotational               0.889              2.981             11.868
 Vibrational             13.324              0.049              0.007

 Optimization completed.
    -- Stationary point found.
 Normal termination of Gaussian 16 at Mon Aug  3 15:43:56 2020.
