 Gaussian 16, Revision A.03,
 Gaussian 16:  ES64L-G16RevA.03 25-Dec-2016

 ----------------------------------------------------------------------
 #p opt=(maxcycles=777) freq ub3lyp/aug-cc-pVDZ pop=(Bonding,AllOrbital
 s,mk,no,nboread)
 ----------------------------------------------------------------------

 ------------------------
 HOOCH_UB3LYP-aug-cc-pVDZ
 ------------------------
 Symbolic Z-matrix:
 Charge =  0 Multiplicity = 1

 SCF Done:  E(UB3LYP) =  -189.794150740     A.U. after   11 cycles
 SCF Done:  E(UB3LYP) =  -189.795309501     A.U. after    9 cycles
 SCF Done:  E(UB3LYP) =  -189.795360569     A.U. after    9 cycles
 SCF Done:  E(UB3LYP) =  -189.795363104     A.U. after    7 cycles
 SCF Done:  E(UB3LYP) =  -189.795363193     A.U. after    7 cycles
 Optimization completed.
    -- Stationary point found.
 Normal termination of Gaussian 16 at Mon Aug  3 15:47:14 2020.

 ----------------------------------------------------------------------
 #P Geom=AllCheck Guess=TCheck SCRF=Check GenChk UB3LYP/Aug-CC-pVDZ Fre
 q
 ----------------------------------------------------------------------

 Structure from the checkpoint file:  "HOOCH_UB3LYP-aug-cc-pVDZ-Opt.chk"
 ------------------------
 HOOCH_UB3LYP-aug-cc-pVDZ
 ------------------------
 Charge =  0 Multiplicity = 1

                         Standard orientation:
 ---------------------------------------------------------------------
 Center     Atomic      Atomic             Coordinates (Angstroms)
 Number     Number       Type             X           Y           Z
 ---------------------------------------------------------------------
      1          6           0       -0.135170    0.400957    0.000440
      2          8           0       -1.138998   -0.265280   -0.000123
      3          8           0        1.121484   -0.090711   -0.000102
      4          1           0        1.055780   -1.061605    0.000055
      5          1           0       -0.104647    1.503793   -0.000888
 ---------------------------------------------------------------------

 SCF Done:  E(UB3LYP) =  -189.795363193     A.U. after    1 cycles

 Mulliken charges and spin densities:
               1          2
     1  C    0.871136   0.000000
     2  O   -0.388787  -0.000000
     3  O   -0.266062   0.000000
     4  H    0.086013  -0.000000
     5  H   -0.302301  -0.000000
 Sum of Mulliken charges =  -0.00000   0.00000

 Dipole moment (field-independent basis, Debye):
    X=              1.5295    Y=              0.2520    Z=              0.0006  Tot=              1.5502
 Quadrupole moment (field-independent basis, Debye-Ang):
   XX=            -21.5328   YY=            -13.9707   ZZ=            -17.2248
   XY=             -2.8273   XZ=              0.0000   YZ=             -0.0009

  Exact polarizability:  27.637   0.554  24.172   0.001  -0.001  15.883
 Approx polarizability:  41.350   3.398  32.564   0.005   0.001  21.077

 ESP charges:
               1
     1  C    0.591842
     2  O   -0.510487
     3  O   -0.559079
     4  H    0.423163
     5  H    0.054560
 Sum of ESP charges =   0.00000

 Summary of Natural Population Analysis:

                                       Natural Population
                Natural  -----------------------------------------------
    Atom  No    Charge         Core      Valence    Rydberg      Total
 -----------------------------------------------------------------------
      C    1    0.34618      0.99980     1.63548    0.01854     2.65382
      O    2   -0.30521      0.99988     3.28849    0.01684     4.30521
      O    3   -0.36077      0.99990     3.34757    0.01330     4.36077
      H    4    0.25166      0.00000     0.24494    0.00340     0.24834
      H    5    0.06814      0.00000     0.42892    0.00294     0.43186
 =======================================================================
   * Total *   -0.00000      2.99959     8.94540    0.05501    12.00000

                      1                      2                      3
                      A                      A                      A
 Frequencies --    622.5210               677.2119              1045.6598
 Red. masses --      3.5313                 1.2582                 1.5730
 Frc consts  --      0.8063                 0.3400                 1.0133
 IR Inten    --     41.6103               137.4372                 2.7912

                      4                      5                      6
                      A                      A                      A
 Frequencies --   1124.5340              1295.6510              1386.4519
 Red. masses --      3.5377                 1.6829                 1.1372
 Frc consts  --      2.6358                 1.6645                 1.2880
 IR Inten    --    255.4380                 7.2082                 2.3242

                      7                      8                      9
                      A                      A                      A
 Frequencies --   1803.8671              3065.9756              3716.5876
 Red. masses --      8.1752                 1.0921                 1.0640
 Frc consts  --     15.6732                 6.0484                 8.6591
 IR Inten    --    369.2363                38.4329                59.1552

 - Thermochemistry -
 -------------------
 Temperature   298.150 Kelvin.  Pressure   1.00000 Atm.
 Atom     1 has atomic number  6 and mass  12.00000

 Molecular mass:    46.00548 amu.
 Principal axes and moments of inertia in atomic units:
                           1         2         3
     Eigenvalues --    23.40043 150.86480 174.26520
           X            0.99938  -0.03527   0.00001
           Y            0.03527   0.99938  -0.00021
           Z           -0.00000   0.00021   1.00000
 This molecule is an asymmetric top.
 Rotational symmetry number  1.
 Rotational temperatures (Kelvin)      3.70138     0.57412     0.49702
 Rotational constants (GHZ):          77.12429    11.96264    10.35629
 Zero-point vibrational energy      88155.6 (Joules/Mol)
                                   21.06969 (Kcal/Mol)
 Vibrational temperatures:    895.67   974.36  1504.47  1617.95  1864.15
          (Kelvin)           1994.79  2595.36  4411.26  5347.34

 Zero-point correction=                           0.033577 (Hartree/Particle)
 Thermal correction to Energy=                    0.036753
 Thermal correction to Enthalpy=                  0.037698
 Thermal correction to Gibbs Free Energy=         0.009483
 Sum of electronic and zero-point Energies=           -189.761787
 Sum of electronic and thermal Energies=              -189.758610
 Sum of electronic and thermal Enthalpies=            -189.757666
 Sum of electronic and thermal Free Energies=         -189.785880

                     E (Thermal)             CV                S
                      KCal/Mol        Cal/Mol-Kelvin    Cal/Mol-Kelvin
 Total                   23.063              8.695             59.382
 Electronic               0.000              0.000              0.000
 Translational            0.889              2.981             37.404
 Rotational               0.889              2.981             21.047
 Vibrational             21.286              2.734              0.931

 Optimization completed.
    -- Stationary point found.
 Normal termination of Gaussian 16 at Mon Aug  3 15:47:40 2020.
