 Gaussian 16, Revision A.03,
 Gaussian 16:  ES64L-G16RevA.03 25-Dec-2016

 ----------------------------------------------------------------------
 #p opt=(maxcycles=777) freq ub3lyp/aug-cc-pVDZ pop=(Bonding,AllOrbital
 s,mk,no,nboread)
 ----------------------------------------------------------------------

 --------------------------
 HOOCCF3_UB3LYP-aug-cc-pVDZ
 --------------------------
 Symbolic Z-matrix:
 Charge =  0 Multiplicity = 1

 SCF Done:  E(UB3LYP) =  -526.873609348     A.U. after   12 cycles
 SCF Done:  E(UB3LYP) =  -526.873609815     A.U. after    9 cycles
 SCF Done:  E(UB3LYP) =  -526.873609543     A.U. after    9 cycles
 SCF Done:  E(UB3LYP) =  -526.873611412     A.U. after    8 cycles
 SCF Done:  E(UB3LYP) =  -526.873611713     A.U. after    8 cycles
 SCF Done:  E(UB3LYP) =  -526.873611740     A.U. after    7 cycles
 Optimization completed.
    -- Stationary point found.
 Normal termination of Gaussian 16 at Sat Aug  1 15:20:40 2020.

 ----------------------------------------------------------------------
 #P Geom=AllCheck Guess=TCheck SCRF=Check GenChk UB3LYP/Aug-CC-pVDZ Fre
 q
 ----------------------------------------------------------------------

 Structure from the checkpoint file:  "HOOCCF3_UB3LYP-aug-cc-pVDZ-Opt.chk"
 --------------------------
 HOOCCF3_UB3LYP-aug-cc-pVDZ
 --------------------------
 Charge =  0 Multiplicity = 1

                         Standard orientation:
 ---------------------------------------------------------------------
 Center     Atomic      Atomic             Coordinates (Angstroms)
 Number     Number       Type             X           Y           Z
 ---------------------------------------------------------------------
      1          6           0       -0.598486   -0.000071   -0.000020
      2          9           0       -1.001427   -0.681544   -1.093740
      3          9           0       -1.001499   -0.681623    1.093715
      4          9           0       -1.196343    1.195556    0.000000
      5          6           0        0.943144    0.161844    0.000013
      6          8           0        1.500474    1.225308    0.000049
      7          8           0        1.528789   -1.044499   -0.000009
      8          1           0        2.491374   -0.908612   -0.000061
 ---------------------------------------------------------------------

 SCF Done:  E(UB3LYP) =  -526.873611740     A.U. after    1 cycles

 Mulliken charges and spin densities:
               1          2
     1  C    1.454899   0.000000
     2  F   -0.401483  -0.000000
     3  F   -0.401541  -0.000000
     4  F   -0.424151  -0.000000
     5  C    0.375551  -0.000000
     6  O   -0.400972   0.000000
     7  O   -0.349156   0.000000
     8  H    0.146853  -0.000000
 Sum of Mulliken charges =  -0.00000  -0.00000

 Dipole moment (field-independent basis, Debye):
    X=              1.7862    Y=             -1.3630    Z=             -0.0004  Tot=              2.2469
 Quadrupole moment (field-independent basis, Debye-Ang):
   XX=            -32.7363   YY=            -41.5749   ZZ=            -37.4213
   XY=             -4.2586   XZ=             -0.0001   YZ=              0.0002

  Exact polarizability:  39.326   0.211  40.116  -0.000   0.000  29.480
 Approx polarizability:  48.528   2.478  62.338  -0.000   0.000  41.473

 ESP charges:
               1
     1  C    0.623113
     2  F   -0.199293
     3  F   -0.199329
     4  F   -0.208241
     5  C    0.536621
     6  O   -0.454555
     7  O   -0.544858
     8  H    0.446542
 Sum of ESP charges =   0.00000

 Summary of Natural Population Analysis:

                                       Natural Population
                Natural  -----------------------------------------------
    Atom  No    Charge         Core      Valence    Rydberg      Total
 -----------------------------------------------------------------------
      C    1    0.53385      0.99962     1.43953    0.02700     2.46615
      F    2   -0.18198      0.99996     3.67260    0.00942     4.68198
      F    3   -0.18199      0.99996     3.67262    0.00941     4.68199
      F    4   -0.17711      0.99996     3.66734    0.00982     4.67711
      C    5    0.38205      0.99965     1.59594    0.02236     2.61795
      O    6   -0.28362      0.99988     3.26667    0.01707     4.28362
      O    7   -0.34842      0.99987     3.33585    0.01270     4.34842
      H    8    0.25723      0.00000     0.23906    0.00371     0.24277
 =======================================================================
   * Total *   -0.00000      6.99889    20.88961    0.11150    28.00000

                      1                      2                      3
                      A                      A                      A
 Frequencies --     33.6239               236.4867               242.3486
 Red. masses --     14.3818                11.6607                10.0458
 Frc consts  --      0.0096                 0.3842                 0.3476
 IR Inten    --      1.7236                 1.4488                 0.1089

                      4                      5                      6
                      A                      A                      A
 Frequencies --    383.8726               414.0342               494.7963
 Red. masses --     12.3632                15.3889                 7.1712
 Frc consts  --      1.0734                 1.5543                 1.0344
 IR Inten    --      1.8125                 0.0394                 0.6893

                      7                      8                      9
                      A                      A                      A
 Frequencies --    573.4032               601.0686               657.0033
 Red. masses --     14.5700                 1.2834                 5.2961
 Frc consts  --      2.8225                 0.2732                 1.3469
 IR Inten    --      6.5479                89.8733                69.8679

                     10                     11                     12
                      A                      A                      A
 Frequencies --    780.2890               780.7293              1133.0970
 Red. masses --      9.1661                 8.6609                 8.0593
 Frc consts  --      3.2881                 3.1104                 6.0966
 IR Inten    --     43.0919                 5.7479               280.0619

                     13                     14                     15
                      A                      A                      A
 Frequencies --   1144.8935              1185.9863              1245.7733
 Red. masses --     13.0048                 4.9423                 2.6139
 Frc consts  --     10.0435                 4.0958                 2.3901
 IR Inten    --    287.0318               347.0738                30.3323

                     16                     17                     18
                      A                      A                      A
 Frequencies --   1405.4027              1849.9946              3734.7393
 Red. masses --      3.8241                11.2248                 1.0647
 Frc consts  --      4.4502                22.6343                 8.7498
 IR Inten    --     32.7055               293.7708                96.1699

 - Thermochemistry -
 -------------------
 Temperature   298.150 Kelvin.  Pressure   1.00000 Atm.
 Atom     1 has atomic number  6 and mass  12.00000

 Molecular mass:   113.99286 amu.
 Principal axes and moments of inertia in atomic units:
                           1         2         3
     Eigenvalues --   474.23267 732.63933 882.23848
           X            0.99953  -0.03064  -0.00000
           Y            0.03064   0.99953   0.00000
           Z            0.00000  -0.00000   1.00000
 This molecule is an asymmetric top.
 Rotational symmetry number  1.
 Warning -- assumption of classical behavior for rotation
           may cause significant error
 Rotational temperatures (Kelvin)      0.18264     0.11822     0.09818
 Rotational constants (GHZ):           3.80560     2.46334     2.04564
 Zero-point vibrational energy     101069.7 (Joules/Mol)
                                   24.15625 (Kcal/Mol)
 Warning -- explicit consideration of   8 degrees of freedom as
           vibrations may cause significant error
 Vibrational temperatures:     48.38   340.25   348.69   552.31   595.70
          (Kelvin)            711.90   825.00   864.80   945.28  1122.66
                             1123.30  1630.27  1647.25  1706.37  1792.39
                             2022.06  2661.73  5373.46

 Zero-point correction=                           0.038495 (Hartree/Particle)
 Thermal correction to Energy=                    0.044767
 Thermal correction to Enthalpy=                  0.045711
 Thermal correction to Gibbs Free Energy=         0.007172
 Sum of electronic and zero-point Energies=           -526.835116
 Sum of electronic and thermal Energies=              -526.828845
 Sum of electronic and thermal Enthalpies=            -526.827901
 Sum of electronic and thermal Free Energies=         -526.866439

                     E (Thermal)             CV                S
                      KCal/Mol        Cal/Mol-Kelvin    Cal/Mol-Kelvin
 Total                   28.092             21.122             81.112
 Electronic               0.000              0.000              0.000
 Translational            0.889              2.981             40.108
 Rotational               0.889              2.981             27.219
 Vibrational             26.314             15.160             13.785
 Vibration     1          0.594              1.983              5.603
 Vibration     2          0.655              1.785              1.829
 Vibration     3          0.659              1.775              1.786
 Vibration     4          0.753              1.505              1.024
 Vibration     5          0.778              1.440              0.912
 Vibration     6          0.850              1.262              0.671
 Vibration     7          0.930              1.089              0.498
 Vibration     8          0.959              1.030              0.448

 Optimization completed.
    -- Stationary point found.
 Normal termination of Gaussian 16 at Sat Aug  1 15:23:34 2020.
