 Gaussian 16, Revision A.03,
 Gaussian 16:  ES64L-G16RevA.03 25-Dec-2016

 ----------------------------------------------------------------------
 #p opt=(maxcycles=777) freq ub3lyp/aug-cc-pVDZ pop=(Bonding,AllOrbital
 s,mk,no,nboread)
 ----------------------------------------------------------------------

 -----------------------
 HOTf_UB3LYP-aug-cc-pVDZ
 -----------------------
 Symbolic Z-matrix:
 Charge =  0 Multiplicity = 1

 SCF Done:  E(UB3LYP) =  -962.107387714     A.U. after   13 cycles
 SCF Done:  E(UB3LYP) =  -962.107388212     A.U. after    8 cycles
 SCF Done:  E(UB3LYP) =  -962.107388423     A.U. after    8 cycles
 SCF Done:  E(UB3LYP) =  -962.107388493     A.U. after    7 cycles
 SCF Done:  E(UB3LYP) =  -962.107388552     A.U. after    7 cycles
 Optimization completed.
    -- Stationary point found.
 Normal termination of Gaussian 16 at Sat Aug  1 16:04:09 2020.

 ----------------------------------------------------------------------
 #P Geom=AllCheck Guess=TCheck SCRF=Check GenChk UB3LYP/Aug-CC-pVDZ Fre
 q
 ----------------------------------------------------------------------

 Structure from the checkpoint file:  "HOTf_UB3LYP-aug-cc-pVDZ-Opt.chk"
 -----------------------
 HOTf_UB3LYP-aug-cc-pVDZ
 -----------------------
 Charge =  0 Multiplicity = 1

                         Standard orientation:
 ---------------------------------------------------------------------
 Center     Atomic      Atomic             Coordinates (Angstroms)
 Number     Number       Type             X           Y           Z
 ---------------------------------------------------------------------
      1         16           0       -0.868104   -0.145819    0.082528
      2          6           0        1.025612    0.007225   -0.001519
      3          8           0       -1.278099    0.214357    1.452465
      4          8           0       -1.236800   -1.395975   -0.587968
      5          9           0        1.440315   -0.187069   -1.252380
      6          9           0        1.385899    1.228542    0.410748
      7          9           0        1.556069   -0.914655    0.803194
      8          8           0       -1.265960    1.091161   -0.936678
      9          1           0       -1.457689    1.872053   -0.387943
 ---------------------------------------------------------------------

 SCF Done:  E(UB3LYP) =  -962.107388552     A.U. after    1 cycles

 Mulliken charges and spin densities:
               1          2
     1  S    1.997036  -0.000000
     2  C    1.049897   0.000000
     3  O   -0.753520   0.000000
     4  O   -0.758507   0.000000
     5  F   -0.363745  -0.000000
     6  F   -0.391562   0.000000
     7  F   -0.369379   0.000000
     8  O   -0.531728   0.000000
     9  H    0.121507   0.000000
 Sum of Mulliken charges =  -0.00000  -0.00000

 Dipole moment (field-independent basis, Debye):
    X=              0.6953    Y=              2.5117    Z=             -0.2921  Tot=              2.6225
 Quadrupole moment (field-independent basis, Debye-Ang):
   XX=            -50.7811   YY=            -48.2470   ZZ=            -55.0987
   XY=             -4.4967   XZ=              0.6388   YZ=             -1.3534

  Exact polarizability:  51.883  -0.399  50.293  -0.325   1.163  48.697
 Approx polarizability:  69.318   0.481  79.273  -1.135   5.752  80.318

 ESP charges:
               1
     1  S    0.751189
     2  C    0.274223
     3  O   -0.392183
     4  O   -0.343978
     5  F   -0.078451
     6  F   -0.109015
     7  F   -0.071286
     8  O   -0.429587
     9  H    0.399088
 Sum of ESP charges =   0.00000

 Summary of Natural Population Analysis:

                                       Natural Population
                Natural  -----------------------------------------------
    Atom  No    Charge         Core      Valence    Rydberg      Total
 -----------------------------------------------------------------------
      S    1    1.10385      4.99931     1.80500    0.09184     6.89615
      C    2    0.47313      0.99982     1.49127    0.03579     2.52687
      O    3   -0.44232      0.99992     3.42263    0.01977     4.44232
      O    4   -0.43014      0.99992     3.41004    0.02017     4.43014
      F    5   -0.17374      0.99995     3.66265    0.01113     4.67374
      F    6   -0.17876      0.99996     3.66773    0.01107     4.67876
      F    7   -0.17462      0.99995     3.66353    0.01113     4.67462
      O    8   -0.44190      0.99992     3.42578    0.01619     4.44190
      H    9    0.26449      0.00000     0.23273    0.00278     0.23551
 =======================================================================
   * Total *   -0.00000     11.99875    24.78138    0.21987    37.00000

                      1                      2                      3
                      A                      A                      A
 Frequencies --     51.5068               170.5583               171.9399
 Red. masses --     13.7155                10.4246                11.7298
 Frc consts  --      0.0214                 0.1787                 0.2043
 IR Inten    --      1.0219                 4.0401                 4.2854

                      4                      5                      6
                      A                      A                      A
 Frequencies --    269.4593               281.0876               307.2130
 Red. masses --     17.4061                 3.0054                13.2076
 Frc consts  --      0.7446                 0.1399                 0.7344
 IR Inten    --      2.5213                24.4787                 2.1976

                      7                      8                      9
                      A                      A                      A
 Frequencies --    341.8136               414.6377               445.7555
 Red. masses --      2.0606                 3.8580                13.0497
 Frc consts  --      0.1418                 0.3908                 1.5277
 IR Inten    --     41.2367                25.5443                18.2147

                     10                     11                     12
                      A                      A                      A
 Frequencies --    536.1931               538.1181               560.2944
 Red. masses --     17.6394                16.2280                20.0255
 Frc consts  --      2.9880                 2.7687                 3.7040
 IR Inten    --      0.2210                 0.4171               122.6185

                     13                     14                     15
                      A                      A                      A
 Frequencies --    731.3328               776.8469              1068.1268
 Red. masses --     16.5134                18.6404                14.6286
 Frc consts  --      5.2038                 6.6279                 9.8333
 IR Inten    --     57.3958               139.1185               249.1838

                     16                     17                     18
                      A                      A                      A
 Frequencies --   1135.5266              1163.7601              1197.6021
 Red. masses --      1.3588                 8.2701                12.7311
 Frc consts  --      1.0323                 6.5991                10.7582
 IR Inten    --     77.0889                69.5602               230.5733

                     19                     20                     21
                      A                      A                      A
 Frequencies --   1210.1362              1336.2762              3729.9037
 Red. masses --     11.9438                 8.5212                 1.0660
 Frc consts  --     10.3053                 8.9649                 8.7378
 IR Inten    --    220.7200               248.7932               133.5172

 - Thermochemistry -
 -------------------
 Temperature   298.150 Kelvin.  Pressure   1.00000 Atm.
 Atom     1 has atomic number 16 and mass  31.97207

 Molecular mass:   149.95985 amu.
 Principal axes and moments of inertia in atomic units:
                           1         2         3
     Eigenvalues --   711.538971197.857451205.09578
           X            0.99979  -0.01711   0.01171
           Y            0.02036   0.91732  -0.39764
           Z           -0.00394   0.39779   0.91747
 This molecule is an asymmetric top.
 Rotational symmetry number  1.
 Warning -- assumption of classical behavior for rotation
           may cause significant error
 Rotational temperatures (Kelvin)      0.12173     0.07231     0.07187
 Rotational constants (GHZ):           2.53639     1.50664     1.49759
 Zero-point vibrational energy      98321.6 (Joules/Mol)
                                   23.49943 (Kcal/Mol)
 Warning -- explicit consideration of  12 degrees of freedom as
           vibrations may cause significant error
 Vibrational temperatures:     74.11   245.40   247.38   387.69   404.42
          (Kelvin)            442.01   491.79   596.57   641.34   771.46
                              774.23   806.14  1052.22  1117.71  1536.80
                             1633.77  1674.39  1723.08  1741.12  1922.60
                             5366.50

 Zero-point correction=                           0.037449 (Hartree/Particle)
 Thermal correction to Energy=                    0.045453
 Thermal correction to Enthalpy=                  0.046397
 Thermal correction to Gibbs Free Energy=         0.004198
 Sum of electronic and zero-point Energies=           -962.069940
 Sum of electronic and thermal Energies=              -962.061935
 Sum of electronic and thermal Enthalpies=            -962.060991
 Sum of electronic and thermal Free Energies=         -962.103191

                     E (Thermal)             CV                S
                      KCal/Mol        Cal/Mol-Kelvin    Cal/Mol-Kelvin
 Total                   28.522             27.431             88.817
 Electronic               0.000              0.000              0.000
 Translational            0.889              2.981             40.926
 Rotational               0.889              2.981             28.420
 Vibrational             26.745             21.469             19.471
 Vibration     1          0.596              1.977              4.759
 Vibration     2          0.626              1.879              2.429
 Vibration     3          0.626              1.877              2.414
 Vibration     4          0.674              1.729              1.600
 Vibration     5          0.681              1.709              1.527
 Vibration     6          0.697              1.660              1.377
 Vibration     7          0.721              1.592              1.204
 Vibration     8          0.778              1.438              0.910
 Vibration     9          0.805              1.370              0.809
 Vibration    10          0.891              1.170              0.574
 Vibration    11          0.893              1.166              0.569
 Vibration    12          0.916              1.117              0.523

 Optimization completed.
    -- Stationary point found.
 Normal termination of Gaussian 16 at Sat Aug  1 16:08:56 2020.
