 Gaussian 16, Revision A.03,
 Gaussian 16:  ES64L-G16RevA.03 25-Dec-2016

 ----------------------------------------------------------------------
 #p opt=(maxcycles=777) freq ub3lyp/aug-cc-pVDZ pop=(Bonding,AllOrbital
 s,mk,no,nboread)
 ----------------------------------------------------------------------

 ------------------------
 HSO4-_UB3LYP-aug-cc-pVDZ
 ------------------------
 Symbolic Z-matrix:
 Charge = -1 Multiplicity = 1

 SCF Done:  E(UB3LYP) =  -699.774993046     A.U. after   12 cycles
 SCF Done:  E(UB3LYP) =  -699.774994009     A.U. after    8 cycles
 SCF Done:  E(UB3LYP) =  -699.774996726     A.U. after    9 cycles
 SCF Done:  E(UB3LYP) =  -699.775001907     A.U. after   10 cycles
 SCF Done:  E(UB3LYP) =  -699.775005929     A.U. after   10 cycles
 SCF Done:  E(UB3LYP) =  -699.775008594     A.U. after   10 cycles
 SCF Done:  E(UB3LYP) =  -699.775013526     A.U. after    9 cycles
 SCF Done:  E(UB3LYP) =  -699.775022090     A.U. after   10 cycles
 SCF Done:  E(UB3LYP) =  -699.775022366     A.U. after    9 cycles
 Optimization completed.
    -- Stationary point found.
 Normal termination of Gaussian 16 at Sun Aug  2 03:11:48 2020.

 ----------------------------------------------------------------------
 #P Geom=AllCheck Guess=TCheck SCRF=Check GenChk UB3LYP/Aug-CC-pVDZ Fre
 q
 ----------------------------------------------------------------------

 Structure from the checkpoint file:  "HSO4-_UB3LYP-aug-cc-pVDZ-Opt.chk"
 ------------------------
 HSO4-_UB3LYP-aug-cc-pVDZ
 ------------------------
 Charge = -1 Multiplicity = 1

                         Standard orientation:
 ---------------------------------------------------------------------
 Center     Atomic      Atomic             Coordinates (Angstroms)
 Number     Number       Type             X           Y           Z
 ---------------------------------------------------------------------
      1         16           0        0.148027   -0.055539    0.007230
      2          8           0       -0.325095   -1.478224    0.192103
      3          8           0        0.818989    0.228052   -1.301908
      4          8           0       -1.358966    0.797831   -0.103274
      5          1           0       -2.001110    0.079980   -0.012363
      6          8           0        0.819157    0.553421    1.200163
 ---------------------------------------------------------------------

 SCF Done:  E(UB3LYP) =  -699.775022366     A.U. after    1 cycles

 Mulliken charges and spin densities:
               1          2
     1  S    2.068839   0.000000
     2  O   -0.881155  -0.000000
     3  O   -0.841916  -0.000000
     4  O   -0.585761  -0.000000
     5  H    0.081820   0.000000
     6  O   -0.841827  -0.000000
 Sum of Mulliken charges =  -1.00000  -0.00000

 Dipole moment (field-independent basis, Debye):
    X=             -2.2656    Y=             -0.1300    Z=              0.0140  Tot=              2.2694
 Quadrupole moment (field-independent basis, Debye-Ang):
   XX=            -39.0805   YY=            -45.6555   ZZ=            -45.9183
   XY=             -0.2681   XZ=              0.0441   YZ=             -0.0352

  Exact polarizability:  46.689   0.730  44.002  -0.093   0.055  44.402
 Approx polarizability:  65.065   3.206  64.998  -0.413   0.105  65.735

 ESP charges:
               1
     1  S    1.151793
     2  O   -0.658846
     3  O   -0.611357
     4  O   -0.614127
     5  H    0.343932
     6  O   -0.611396
 Sum of ESP charges =  -1.00000

 Summary of Natural Population Analysis:

                                       Natural Population
                Natural  -----------------------------------------------
    Atom  No    Charge         Core      Valence    Rydberg      Total
 -----------------------------------------------------------------------
      S    1    1.24142      4.99961     1.67175    0.08722     6.75858
      O    2   -0.51372      0.99992     3.49682    0.01698     4.51372
      O    3   -0.49730      0.99992     3.48041    0.01697     4.49730
      O    4   -0.47817      0.99993     3.46285    0.01539     4.47817
      H    5    0.24506      0.00000     0.25166    0.00327     0.25494
      O    6   -0.49729      0.99992     3.48040    0.01697     4.49729
 =======================================================================
   * Total *   -0.50000      8.99931    15.84388    0.15681    25.00000

                      1                      2                      3
                      A                      A                      A
 Frequencies --     74.0373               342.0617               343.3214
 Red. masses --      1.1947                 5.8376                 8.3095
 Frc consts  --      0.0039                 0.4024                 0.5771
 IR Inten    --     62.5176                 4.4903                 2.8810

                      4                      5                      6
                      A                      A                      A
 Frequencies --    492.9688               497.1656               505.5188
 Red. masses --     14.7554                 9.8173                17.6868
 Frc consts  --      2.1127                 1.4297                 2.6630
 IR Inten    --     18.8931                 9.5702                29.9511

                      7                      8                      9
                      A                      A                      A
 Frequencies --    657.9834               946.6931              1073.7258
 Red. masses --     19.4191                15.5136                 2.1044
 Frc consts  --      4.9535                 8.1918                 1.4295
 IR Inten    --    260.7549                76.2495               198.4050

                     10                     11                     12
                      A                      A                      A
 Frequencies --   1167.3573              1206.6764              3798.9257
 Red. masses --     20.5605                 2.2519                 1.0656
 Frc consts  --     16.5079                 1.9319                 9.0609
 IR Inten    --    340.5817               234.3622                38.3092

 - Thermochemistry -
 -------------------
 Temperature   298.150 Kelvin.  Pressure   1.00000 Atm.
 Atom     1 has atomic number 16 and mass  31.97207

 Molecular mass:    96.95956 amu.
 Principal axes and moments of inertia in atomic units:
                           1         2         3
     Eigenvalues --   363.80777 386.75798 386.94364
           X            0.99968  -0.02484   0.00460
           Y            0.02497   0.99921  -0.03100
           Z           -0.00382   0.03110   0.99951
 This molecule is an asymmetric top.
 Rotational symmetry number  1.
 Rotational temperatures (Kelvin)      0.23808     0.22395     0.22384
 Rotational constants (GHZ):           4.96070     4.66633     4.66409
 Zero-point vibrational energy      66431.2 (Joules/Mol)
                                   15.87745 (Kcal/Mol)
 Warning -- explicit consideration of   6 degrees of freedom as
           vibrations may cause significant error
 Vibrational temperatures:    106.52   492.15   493.96   709.27   715.31
          (Kelvin)            727.33   946.69  1362.08  1544.85  1679.57
                             1736.14  5465.81

 Zero-point correction=                           0.025302 (Hartree/Particle)
 Thermal correction to Energy=                    0.030574
 Thermal correction to Enthalpy=                  0.031518
 Thermal correction to Gibbs Free Energy=        -0.003731
 Sum of electronic and zero-point Energies=           -699.749720
 Sum of electronic and thermal Energies=              -699.744448
 Sum of electronic and thermal Enthalpies=            -699.743504
 Sum of electronic and thermal Free Energies=         -699.778753

                     E (Thermal)             CV                S
                      KCal/Mol        Cal/Mol-Kelvin    Cal/Mol-Kelvin
 Total                   19.185             16.950             74.188
 Electronic               0.000              0.000              0.000
 Translational            0.889              2.981             39.626
 Rotational               0.889              2.981             25.502
 Vibrational             17.408             10.988              9.061
 Vibration     1          0.599              1.966              4.043
 Vibration     2          0.721              1.591              1.203
 Vibration     3          0.722              1.589              1.197
 Vibration     4          0.849              1.266              0.676
 Vibration     5          0.853              1.256              0.665
 Vibration     6          0.861              1.238              0.644

 Optimization completed.
    -- Stationary point found.
 Normal termination of Gaussian 16 at Sun Aug  2 03:13:00 2020.
