 Gaussian 16, Revision A.03,
 Gaussian 16:  ES64L-G16RevA.03 25-Dec-2016

 ----------------------------------------------------------------------
 #p opt=(maxcycles=777) freq ub3lyp/aug-cc-pVDZ pop=(Bonding,AllOrbital
 s,mk,no,nboread)
 ----------------------------------------------------------------------

 -----------------------
 NO3-_UB3LYP-aug-cc-pVDZ
 -----------------------
 Symbolic Z-matrix:
 Charge = -1 Multiplicity = 1

 SCF Done:  E(UB3LYP) =  -280.405456289     A.U. after   15 cycles
 SCF Done:  E(UB3LYP) =  -280.414777795     A.U. after   13 cycles
 SCF Done:  E(UB3LYP) =  -280.417658921     A.U. after   12 cycles
 SCF Done:  E(UB3LYP) =  -280.418018961     A.U. after   10 cycles
 SCF Done:  E(UB3LYP) =  -280.418020654     A.U. after    8 cycles
 Optimization completed.
    -- Stationary point found.
 Normal termination of Gaussian 16 at Sun Aug  2 03:26:51 2020.

 ----------------------------------------------------------------------
 #P Geom=AllCheck Guess=TCheck SCRF=Check GenChk UB3LYP/Aug-CC-pVDZ Fre
 q
 ----------------------------------------------------------------------

 Structure from the checkpoint file:  "NO3-_UB3LYP-aug-cc-pVDZ-Opt.chk"
 -----------------------
 NO3-_UB3LYP-aug-cc-pVDZ
 -----------------------
 Charge = -1 Multiplicity = 1

                         Standard orientation:
 ---------------------------------------------------------------------
 Center     Atomic      Atomic             Coordinates (Angstroms)
 Number     Number       Type             X           Y           Z
 ---------------------------------------------------------------------
      1          7           0        0.000000    0.000268    0.000000
      2          8           0       -1.093557    0.631140    0.000000
      3          8           0        1.093833    0.630668   -0.000000
      4          8           0       -0.000276   -1.262043   -0.000000
 ---------------------------------------------------------------------

 SCF Done:  E(UB3LYP) =  -280.418020654     A.U. after    1 cycles

 Mulliken charges and spin densities:
               1          2
     1  N    1.061063  -0.000000
     2  O   -0.686952  -0.000000
     3  O   -0.686953  -0.000000
     4  O   -0.687158   0.000000
 Sum of Mulliken charges =  -1.00000   0.00000

 Dipole moment (field-independent basis, Debye):
    X=             -0.0000    Y=              0.0004    Z=              0.0000  Tot=              0.0004
 Quadrupole moment (field-independent basis, Debye-Ang):
   XX=            -30.9893   YY=            -30.9867   ZZ=            -23.1409
   XY=             -0.0000   XZ=              0.0000   YZ=             -0.0000

  Exact polarizability:  37.020   0.000  37.010  -0.000  -0.000  20.516
 Approx polarizability:  57.872   0.000  57.832  -0.000   0.000  27.018

 ESP charges:
               1
     1  N    1.024541
     2  O   -0.674492
     3  O   -0.675173
     4  O   -0.674876
 Sum of ESP charges =  -1.00000

 Summary of Natural Population Analysis:

                                       Natural Population
                Natural  -----------------------------------------------
    Atom  No    Charge         Core      Valence    Rydberg      Total
 -----------------------------------------------------------------------
      N    1    0.35303      0.99986     2.12090    0.02621     3.14697
      O    2   -0.28435      0.99989     3.27169    0.01277     4.28435
      O    3   -0.28435      0.99989     3.27169    0.01277     4.28435
      O    4   -0.28433      0.99989     3.27167    0.01278     4.28433
 =======================================================================
   * Total *   -0.50000      3.99954    11.93594    0.06452    16.00000

                      1                      2                      3
                     A'                     A'                     A"
 Frequencies --    697.1497               697.9144               833.1466
 Red. masses --     15.8432                15.8432                14.4084
 Frc consts  --      4.5367                 4.5467                 5.8926
 IR Inten    --      0.0538                 0.0497                 7.9443

                      4                      5                      6
                     A'                     A'                     A'
 Frequencies --   1071.3470              1389.8384              1390.4626
 Red. masses --     15.9949                14.5337                14.5338
 Frc consts  --     10.8166                16.5408                16.5557
 IR Inten    --      0.0011               566.4371               566.3795

 - Thermochemistry -
 -------------------
 Temperature   298.150 Kelvin.  Pressure   1.00000 Atm.
 Atom     1 has atomic number  7 and mass  14.00307

 Molecular mass:    61.98782 amu.
 Principal axes and moments of inertia in atomic units:
                           1         2         3
     Eigenvalues --   136.44748 136.64758 273.09506
           X            1.00000  -0.00163   0.00000
           Y            0.00163   1.00000   0.00000
           Z            0.00000  -0.00000   1.00000
 This molecule is an asymmetric top.
 Rotational symmetry number  1.
 Rotational temperatures (Kelvin)      0.63478     0.63385     0.31716
 Rotational constants (GHZ):          13.22664    13.20727     6.60847
 Zero-point vibrational energy      36365.6 (Joules/Mol)
                                    8.69159 (Kcal/Mol)
 Vibrational temperatures:   1003.04  1004.14  1198.71  1541.43  1999.67
          (Kelvin)           2000.57

 Zero-point correction=                           0.013851 (Hartree/Particle)
 Thermal correction to Energy=                    0.017024
 Thermal correction to Enthalpy=                  0.017968
 Thermal correction to Gibbs Free Energy=        -0.011655
 Sum of electronic and zero-point Energies=           -280.404170
 Sum of electronic and thermal Energies=              -280.400997
 Sum of electronic and thermal Enthalpies=            -280.400053
 Sum of electronic and thermal Free Energies=         -280.429676

                     E (Thermal)             CV                S
                      KCal/Mol        Cal/Mol-Kelvin    Cal/Mol-Kelvin
 Total                   10.682              8.751             62.347
 Electronic               0.000              0.000              0.000
 Translational            0.889              2.981             38.292
 Rotational               0.889              2.981             23.147
 Vibrational              8.905              2.790              0.908

 Optimization completed.
    -- Stationary point found.
 Normal termination of Gaussian 16 at Sun Aug  2 03:27:09 2020.
