 Gaussian 16, Revision A.03,
 Gaussian 16:  ES64L-G16RevA.03 25-Dec-2016

 ----------------------------------------------------------------------
 #p opt=(maxcycles=777) freq ub3lyp/aug-cc-pVDZ pop=(Bonding,AllOrbital
 s,mk,no,nboread)
 ----------------------------------------------------------------------

 ------------------------
 PhN2+_UB3LYP-aug-cc-pVDZ
 ------------------------
 Symbolic Z-matrix:
 Charge =  1 Multiplicity = 1

 SCF Done:  E(UB3LYP) =  -340.880834601     A.U. after   16 cycles
 SCF Done:  E(UB3LYP) =  -340.880836911     A.U. after   10 cycles
 Optimization completed.
    -- Stationary point found.
 Normal termination of Gaussian 16 at Wed Mar 20 21:07:41 2019.

 ----------------------------------------------------------------------
 #P Geom=AllCheck Guess=TCheck SCRF=Check GenChk UB3LYP/Aug-CC-pVDZ Fre
 q
 ----------------------------------------------------------------------

 Structure from the checkpoint file:  "PhN2+_UB3LYP-aug-cc-pVDZ-Opt.chk"
 ------------------------
 PhN2+_UB3LYP-aug-cc-pVDZ
 ------------------------
 Charge =  1 Multiplicity = 1

                         Standard orientation:
 ---------------------------------------------------------------------
 Center     Atomic      Atomic             Coordinates (Angstroms)
 Number     Number       Type             X           Y           Z
 ---------------------------------------------------------------------
      1          6           0       -1.484988   -1.224961    0.000187
      2          6           0       -0.096370   -1.247698   -0.000379
      3          6           0        0.562759   -0.000051   -0.000027
      4          6           0       -0.096411    1.247640   -0.000123
      5          6           0       -1.485052    1.224974   -0.000054
      6          6           0       -2.171797    0.000030    0.000282
      7          1           0       -2.036701   -2.163927   -0.000630
      8          1           0        0.466820   -2.179523   -0.000878
      9          1           0        0.466963    2.179361   -0.000880
     10          1           0       -2.036514    2.164082   -0.000693
     11          7           0        1.945333    0.000057    0.000200
     12          7           0        3.059314    0.000008    0.000176
     13          1           0       -3.261945   -0.000046    0.001135
 ---------------------------------------------------------------------

 SCF Done:  E(UB3LYP) =  -340.880836911     A.U. after    1 cycles

 Mulliken charges and spin densities:
               1          2
     1  C    0.822563   0.000000
     2  C    0.558020   0.000000
     3  C    1.340848  -0.000000
     4  C    0.557688  -0.000000
     5  C    0.822632   0.000000
     6  C    0.598332  -0.000000
     7  H   -0.676092  -0.000000
     8  H   -0.716814  -0.000000
     9  H   -0.716954  -0.000000
    10  H   -0.675980   0.000000
    11  N    0.411155  -0.000000
    12  N   -0.660301   0.000000
    13  H   -0.665099  -0.000000
 Sum of Mulliken charges =   1.00000   0.00000

 Dipole moment (field-independent basis, Debye):
    X=              0.5406    Y=              0.0000    Z=             -0.0012  Tot=              0.5406
 Quadrupole moment (field-independent basis, Debye-Ang):
   XX=            -22.7067   YY=            -31.4402   ZZ=            -45.5959
   XY=              0.0003   XZ=             -0.0008   YZ=             -0.0000

  Exact polarizability: 124.862  -0.000  79.114  -0.003   0.000  42.403
 Approx polarizability: 241.989  -0.003 135.183  -0.007   0.002  65.387

 ESP charges:
               1
     1  C   -0.021672
     2  C   -0.164387
     3  C    0.121600
     4  C   -0.164380
     5  C   -0.021670
     6  C   -0.017401
     7  H    0.153144
     8  H    0.197885
     9  H    0.197869
    10  H    0.153152
    11  N    0.376074
    12  N    0.038396
    13  H    0.151391
 Sum of ESP charges =   1.00000

 Summary of Natural Population Analysis:

                                       Natural Population
                Natural  -----------------------------------------------
    Atom  No    Charge         Core      Valence    Rydberg      Total
 -----------------------------------------------------------------------
      C    1   -0.09938      0.99950     2.09148    0.00840     3.09938
      C    2   -0.07585      0.99945     2.06776    0.00864     3.07585
      C    3    0.00648      0.99937     1.98281    0.01135     2.99352
      C    4   -0.07582      0.99945     2.06773    0.00864     3.07582
      C    5   -0.09939      0.99950     2.09149    0.00840     3.09939
      C    6   -0.05550      0.99951     2.04801    0.00799     3.05550
      H    7    0.13742      0.00000     0.36050    0.00208     0.36258
      H    8    0.13745      0.00000     0.36021    0.00233     0.36255
      H    9    0.13745      0.00000     0.36022    0.00233     0.36255
      H   10    0.13742      0.00000     0.36050    0.00208     0.36258
      N   11    0.06666      0.99963     2.41705    0.01666     3.43334
      N   12    0.14899      0.99982     2.33541    0.01578     3.35101
      H   13    0.13408      0.00000     0.36360    0.00232     0.36592
 =======================================================================
   * Total *    0.50000      7.99622    18.90677    0.09701    27.00000

                      1                      2                      3
                      A                      A                      A
 Frequencies --    145.2137               174.2654               389.8294
 Red. masses --      5.6485                 6.8962                 4.1332
 Frc consts  --      0.0702                 0.1234                 0.3701
 IR Inten    --      0.0490                 0.5589                 0.0443

                      4                      5                      6
                      A                      A                      A
 Frequencies --    393.3882               460.3835               541.8129
 Red. masses --      2.8127                 8.5773                 7.8638
 Frc consts  --      0.2565                 1.0711                 1.3601
 IR Inten    --      0.0000                 6.5847                 0.0011

                      7                      8                      9
                      A                      A                      A
 Frequencies --    548.3759               624.5573               669.3410
 Red. masses --      5.9106                 7.0257                 2.1672
 Frc consts  --      1.0472                 1.6147                 0.5721
 IR Inten    --     11.8625                 0.1513                25.1349

                     10                     11                     12
                      A                      A                      A
 Frequencies --    765.2385               766.7028               827.8587
 Red. masses --      6.2531                 1.4766                 1.2563
 Frc consts  --      2.1575                 0.5114                 0.5073
 IR Inten    --      0.2332                56.6674                 0.0002

                     13                     14                     15
                      A                      A                      A
 Frequencies --    954.6194               998.8366              1005.4551
 Red. masses --      1.3189                 1.3714                 6.1756
 Frc consts  --      0.7081                 0.8061                 3.6784
 IR Inten    --      1.8130                 0.0000                 3.7154

                     16                     17                     18
                      A                      A                      A
 Frequencies --   1031.9504              1039.6366              1111.5317
 Red. masses --      2.2338                 1.4106                 1.4844
 Frc consts  --      1.4016                 0.8983                 1.0806
 IR Inten    --      0.0074                 0.1591                 4.5331

                     19                     20                     21
                      A                      A                      A
 Frequencies --   1125.3087              1193.1877              1202.8999
 Red. masses --      3.6027                 1.0894                 1.2456
 Frc consts  --      2.6879                 0.9138                 1.0619
 IR Inten    --    129.3348                 1.2302                 1.4165

                     22                     23                     24
                      A                      A                      A
 Frequencies --   1336.1298              1377.2915              1475.4075
 Red. masses --      1.3508                 7.1901                 1.9525
 Frc consts  --      1.4208                 8.0359                 2.5042
 IR Inten    --      0.0275                21.2784                 0.6372

                     25                     26                     27
                      A                      A                      A
 Frequencies --   1477.7199              1602.0194              1605.3297
 Red. masses --      2.3982                 5.4295                 5.2816
 Frc consts  --      3.0855                 8.2100                 8.0194
 IR Inten    --     23.1952                 0.3600               106.3426

                     28                     29                     30
                      A                      A                      A
 Frequencies --   2336.9279              3203.1232              3211.0238
 Red. masses --     13.9414                 1.0895                 1.0904
 Frc consts  --     44.8588                 6.5862                 6.6237
 IR Inten    --    253.7239                 0.0984                 0.5277

                     31                     32                     33
                      A                      A                      A
 Frequencies --   3214.2932              3221.9507              3224.6273
 Red. masses --      1.0939                 1.0978                 1.1005
 Frc consts  --      6.6590                 6.7147                 6.7424
 IR Inten    --      6.6585                15.8134                 0.3782

 - Thermochemistry -
 -------------------
 Temperature   298.150 Kelvin.  Pressure   1.00000 Atm.
 Atom     1 has atomic number  6 and mass  12.00000

 Molecular mass:   105.04527 amu.
 Principal axes and moments of inertia in atomic units:
                           1         2         3
     Eigenvalues --   329.919091131.101181461.02021
           X            1.00000   0.00000  -0.00001
           Y           -0.00000   1.00000  -0.00000
           Z            0.00001   0.00000   1.00000
 This molecule is an asymmetric top.
 Rotational symmetry number  1.
 Rotational temperatures (Kelvin)      0.26253     0.07657     0.05928
 Rotational constants (GHZ):           5.47025     1.59556     1.23526
 Zero-point vibrational energy     258729.8 (Joules/Mol)
                                   61.83790 (Kcal/Mol)
 Warning -- explicit consideration of   7 degrees of freedom as
           vibrations may cause significant error
 Vibrational temperatures:    208.93   250.73   560.88   566.00   662.39
          (Kelvin)            779.55   788.99   898.60   963.03  1101.01
                             1103.11  1191.10  1373.48  1437.10  1446.63
                             1484.75  1495.81  1599.25  1619.07  1716.73
                             1730.70  1922.39  1981.62  2122.78  2126.11
                             2304.95  2309.71  3362.32  4608.58  4619.95
                             4624.65  4635.67  4639.52

 Zero-point correction=                           0.098545 (Hartree/Particle)
 Thermal correction to Energy=                    0.104725
 Thermal correction to Enthalpy=                  0.105669
 Thermal correction to Gibbs Free Energy=         0.068230
 Sum of electronic and zero-point Energies=           -340.782292
 Sum of electronic and thermal Energies=              -340.776112
 Sum of electronic and thermal Enthalpies=            -340.775168
 Sum of electronic and thermal Free Energies=         -340.812607

                     E (Thermal)             CV                S
                      KCal/Mol        Cal/Mol-Kelvin    Cal/Mol-Kelvin
 Total                   65.716             23.567             78.797
 Electronic               0.000              0.000              0.000
 Translational            0.889              2.981             39.865
 Rotational               0.889              2.981             27.791
 Vibrational             63.938             17.605             11.142
 Vibration     1          0.617              1.908              2.734
 Vibration     2          0.627              1.874              2.389
 Vibration     3          0.758              1.492              1.001
 Vibration     4          0.761              1.484              0.987
 Vibration     5          0.818              1.338              0.765
 Vibration     6          0.897              1.158              0.561
 Vibration     7          0.904              1.143              0.548

                           ! Non-Optimized Parameters !
 Normal termination of Gaussian 16 at Wed Mar 20 21:20:01 2019.
