 Gaussian 16, Revision A.03,
 Gaussian 16:  ES64L-G16RevA.03 25-Dec-2016

 ----------------------------------------------------------------------
 #p opt=(maxcycles=777) freq ub3lyp/aug-cc-pVDZ pop=(Bonding,AllOrbital
 s,mk,no,nboread)
 ----------------------------------------------------------------------

 ------------------------------
 s-4-MeOC6H3_UB3LYP-aug-cc-pVDZ
 ------------------------------
 Symbolic Z-matrix:
 Charge =  0 Multiplicity = 1

 SCF Done:  E(UB3LYP) =  -345.471272181     A.U. after   14 cycles
 SCF Done:  E(UB3LYP) =  -345.471274023     A.U. after   10 cycles
 SCF Done:  E(UB3LYP) =  -345.471274304     A.U. after    9 cycles
 SCF Done:  E(UB3LYP) =  -345.471274436     A.U. after    9 cycles
 SCF Done:  E(UB3LYP) =  -345.471274522     A.U. after    8 cycles
 SCF Done:  E(UB3LYP) =  -345.471274590     A.U. after    8 cycles
 Optimization completed.
    -- Stationary point found.
 Normal termination of Gaussian 16 at Sat Nov  5 20:28:04 2016.

 ----------------------------------------------------------------------
 #P Geom=AllCheck Guess=TCheck SCRF=Check GenChk UB3LYP/Aug-CC-pVDZ Fre
 q
 ----------------------------------------------------------------------

 Structure from the checkpoint file:  "s-4-MeOC6H3_UB3LYP-aug-cc-pVDZ-Opt.chk"
 ------------------------------
 s-4-MeOC6H3_UB3LYP-aug-cc-pVDZ
 ------------------------------
 Charge =  0 Multiplicity = 1

                         Standard orientation:
 ---------------------------------------------------------------------
 Center     Atomic      Atomic             Coordinates (Angstroms)
 Number     Number       Type             X           Y           Z
 ---------------------------------------------------------------------
      1          6           0        2.293967    0.170895    0.000148
      2          6           0        1.858663   -1.004684    0.000156
      3          6           0        0.544610   -1.424866   -0.000001
      4          6           0       -0.334558   -0.305222   -0.000167
      5          8           0       -1.663104   -0.630468   -0.000306
      6          6           0       -2.626172    0.418317    0.000284
      7          6           0        0.147376    1.028621   -0.000198
      8          6           0        1.528439    1.326918    0.000029
      9          1           0        0.157715   -2.441535    0.000047
     10          1           0       -3.602739   -0.075779    0.000783
     11          1           0       -2.532969    1.045438   -0.899782
     12          1           0       -2.532132    1.045192    0.900466
     13          1           0       -0.555315    1.859022   -0.000445
     14          1           0        1.896327    2.351529   -0.000121
 ---------------------------------------------------------------------

 SCF Done:  E(UB3LYP) =  -345.471274590     A.U. after    1 cycles

 Mulliken charges and spin densities:
               1          2
     1  C   -0.468650   0.000000
     2  C   -0.389931  -0.000000
     3  C    0.811098  -0.000000
     4  C    0.704526   0.000000
     5  O   -0.643038  -0.000000
     6  C    1.186791  -0.000000
     7  C    1.258834   0.000000
     8  C    0.923776  -0.000000
     9  H   -0.642425   0.000000
    10  H   -0.544762  -0.000000
    11  H   -0.193204   0.000000
    12  H   -0.192978   0.000000
    13  H   -1.204533  -0.000000
    14  H   -0.605505   0.000000
 Sum of Mulliken charges =  -0.00000   0.00000

 Dipole moment (field-independent basis, Debye):
    X=             -2.3260    Y=              1.6668    Z=              0.0004  Tot=              2.8616
 Quadrupole moment (field-independent basis, Debye-Ang):
   XX=            -46.6139   YY=            -43.3043   ZZ=            -49.7127
   XY=             -0.5675   XZ=             -0.0021   YZ=             -0.0012

  Exact polarizability: 109.060   1.103  97.056   0.002  -0.001  55.030
 Approx polarizability: 167.179  15.062 193.182   0.007  -0.001  82.250

 ESP charges:
               1
     1  C   -0.105575
     2  C   -0.002657
     3  C   -0.255562
     4  C    0.409389
     5  O   -0.342454
     6  C   -0.024138
     7  C   -0.261184
     8  C   -0.066215
     9  H    0.165675
    10  H    0.096407
    11  H    0.060860
    12  H    0.060831
    13  H    0.128595
    14  H    0.136029
 Sum of ESP charges =  -0.00000

 Summary of Natural Population Analysis:

                                       Natural Population
                Natural  -----------------------------------------------
    Atom  No    Charge         Core      Valence    Rydberg      Total
 -----------------------------------------------------------------------
      C    1   -0.00114      0.99893     1.98827    0.01395     3.00114
      C    2    0.01916      0.99894     1.96816    0.01373     2.98084
      C    3   -0.15405      0.99939     2.14400    0.01066     3.15405
      C    4    0.16315      0.99937     1.82459    0.01289     2.83685
      O    5   -0.27949      0.99985     3.26578    0.01386     4.27949
      C    6   -0.12972      0.99967     2.12370    0.00635     3.12972
      C    7   -0.15658      0.99945     2.14980    0.00733     3.15658
      C    8   -0.12580      0.99944     2.11657    0.00979     3.12580
      H    9    0.12401      0.00000     0.37358    0.00240     0.37599
      H   10    0.10856      0.00000     0.39030    0.00115     0.39144
      H   11    0.09606      0.00000     0.40223    0.00171     0.40394
      H   12    0.09606      0.00000     0.40223    0.00171     0.40394
      H   13    0.12114      0.00000     0.37642    0.00244     0.37886
      H   14    0.11864      0.00000     0.37918    0.00218     0.38136
 =======================================================================
   * Total *   -0.00000      7.99505    19.90482    0.10014    28.00000

                      1                      2                      3
                      A                      A                      A
 Frequencies --     81.8380               221.8169               263.8864
 Red. masses --      3.4588                 1.7097                 3.1817
 Frc consts  --      0.0136                 0.0496                 0.1305
 IR Inten    --      2.2810                 0.7160                 1.9426

                      4                      5                      6
                      A                      A                      A
 Frequencies --    290.3016               383.6441               394.9058
 Red. masses --      1.8728                 9.8805                 2.6724
 Frc consts  --      0.0930                 0.8568                 0.2455
 IR Inten    --      2.1619                87.0308                 5.2464

                      7                      8                      9
                      A                      A                      A
 Frequencies --    433.9042               474.8928               588.3027
 Red. masses --     11.1128                 4.7296                 6.1363
 Frc consts  --      1.2327                 0.6284                 1.2513
 IR Inten    --      0.0142                11.5565                24.7209

                     10                     11                     12
                      A                      A                      A
 Frequencies --    652.9713               673.9215               809.9159
 Red. masses --      2.3221                 6.3117                 1.7126
 Frc consts  --      0.5833                 1.6889                 0.6619
 IR Inten    --     12.3935                34.4184                34.5852

                     13                     14                     15
                      A                      A                      A
 Frequencies --    841.0690               910.9860               919.6111
 Red. masses --      1.3675                 4.6430                 1.3232
 Frc consts  --      0.5699                 2.2702                 0.6593
 IR Inten    --     11.8090                 7.7952                 0.7916

                     16                     17                     18
                      A                      A                      A
 Frequencies --   1047.7662              1079.2848              1135.8479
 Red. masses --      3.3793                 3.1263                 1.3503
 Frc consts  --      2.1858                 2.1456                 1.0264
 IR Inten    --     43.9073                 1.1267                 5.7711

                     19                     20                     21
                      A                      A                      A
 Frequencies --   1156.9310              1187.5494              1235.1006
 Red. masses --      1.2707                 1.4742                 1.7974
 Frc consts  --      1.0021                 1.2249                 1.6155
 IR Inten    --      1.1567                23.2280                94.3222

                     22                     23                     24
                      A                      A                      A
 Frequencies --   1269.1343              1310.3783              1394.7760
 Red. masses --      2.4404                 3.1834                 4.0163
 Frc consts  --      2.3160                 3.2206                 4.6035
 IR Inten    --    179.4754                 1.5774                 8.6486

                     25                     26                     27
                      A                      A                      A
 Frequencies --   1447.1490              1468.9671              1471.9167
 Red. masses --      1.2242                 3.9471                 1.0460
 Frc consts  --      1.5105                 5.0182                 1.3353
 IR Inten    --     17.0764                 0.2918                 8.3662

                     28                     29                     30
                      A                      A                      A
 Frequencies --   1478.0628              1513.6148              2012.5667
 Red. masses --      1.0597                 3.3851                11.3489
 Frc consts  --      1.3641                 4.5693                27.0835
 IR Inten    --     23.7112               145.1149                 6.9449

                     31                     32                     33
                      A                      A                      A
 Frequencies --   3008.6851              3075.9156              3147.9578
 Red. masses --      1.0344                 1.1062                 1.0998
 Frc consts  --      5.5168                 6.1663                 6.4211
 IR Inten    --     49.7416                34.7483                19.3667

                     34                     35                     36
                      A                      A                      A
 Frequencies --   3196.6314              3210.4077              3217.3767
 Red. masses --      1.0899                 1.0929                 1.0922
 Frc consts  --      6.5615                 6.6365                 6.6615
 IR Inten    --     10.9670                 6.1769                 7.0235

 - Thermochemistry -
 -------------------
 Temperature   298.150 Kelvin.  Pressure   1.00000 Atm.
 Atom     1 has atomic number  6 and mass  12.00000

 Molecular mass:   106.04186 amu.
 Principal axes and moments of inertia in atomic units:
                           1         2         3
     Eigenvalues --   353.444501056.858241398.63871
           X            0.99994  -0.01122  -0.00001
           Y            0.01122   0.99994  -0.00001
           Z            0.00001   0.00001   1.00000
 This molecule is an asymmetric top.
 Rotational symmetry number  1.
 Rotational temperatures (Kelvin)      0.24506     0.08195     0.06193
 Rotational constants (GHZ):           5.10615     1.70765     1.29036
 Zero-point vibrational energy     281170.2 (Joules/Mol)
                                   67.20129 (Kcal/Mol)
 Warning -- explicit consideration of   9 degrees of freedom as
           vibrations may cause significant error
 Vibrational temperatures:    117.75   319.15   379.67   417.68   551.98
          (Kelvin)            568.18   624.29   683.26   846.44   939.48
                              969.62  1165.29  1210.11  1310.71  1323.12
                             1507.50  1552.85  1634.23  1664.57  1708.62
                             1777.03  1826.00  1885.34  2006.77  2082.12
                             2113.52  2117.76  2126.60  2177.75  2895.63
                             4328.83  4425.56  4529.21  4599.24  4619.06
                             4629.09

 Zero-point correction=                           0.107092 (Hartree/Particle)
 Thermal correction to Energy=                    0.114141
 Thermal correction to Enthalpy=                  0.115085
 Thermal correction to Gibbs Free Energy=         0.075934
 Sum of electronic and zero-point Energies=           -345.364183
 Sum of electronic and thermal Energies=              -345.357134
 Sum of electronic and thermal Enthalpies=            -345.356189
 Sum of electronic and thermal Free Energies=         -345.395340

                     E (Thermal)             CV                S
                      KCal/Mol        Cal/Mol-Kelvin    Cal/Mol-Kelvin
 Total                   71.625             26.230             82.400
 Electronic               0.000              0.000              0.000
 Translational            0.889              2.981             39.893
 Rotational               0.889              2.981             27.748
 Vibrational             69.847             20.269             14.759
 Vibration     1          0.600              1.962              3.846
 Vibration     2          0.648              1.808              1.944
 Vibration     3          0.670              1.739              1.636
 Vibration     4          0.686              1.692              1.472
 Vibration     5          0.753              1.505              1.025
 Vibration     6          0.762              1.481              0.982
 Vibration     7          0.795              1.396              0.846
 Vibration     8          0.832              1.306              0.724
 Vibration     9          0.946              1.057              0.470

 Optimization completed.
    -- Stationary point found.
 Normal termination of Gaussian 16 at Sat Nov  5 20:40:47 2016.
