 Gaussian 16, Revision A.03,
 Gaussian 16:  ES64L-G16RevA.03 25-Dec-2016

 ----------------------------------------------------------------------
 #p opt=(maxcycles=777) freq ub3lyp/aug-cc-pVDZ pop=(Bonding,AllOrbital
 s,mk,no,nboread)
 ----------------------------------------------------------------------

 -----------------------------
 s-4-NO2Ph+_UB3LYP-aug-cc-pVDZ
 -----------------------------
 Symbolic Z-matrix:
 Charge =  1 Multiplicity = 1

 SCF Done:  E(UB3LYP) =  -435.792058641     A.U. after   17 cycles
 SCF Done:  E(UB3LYP) =  -435.792058903     A.U. after   11 cycles
 SCF Done:  E(UB3LYP) =  -435.792002609     A.U. after   12 cycles
 SCF Done:  E(UB3LYP) =  -435.792059769     A.U. after   12 cycles
 Optimization completed.
    -- Stationary point found.
 Normal termination of Gaussian 16 at Sat Nov  5 22:39:33 2016.

 ----------------------------------------------------------------------
 #P Geom=AllCheck Guess=TCheck SCRF=Check GenChk UB3LYP/Aug-CC-pVDZ Fre
 q
 ----------------------------------------------------------------------

 Structure from the checkpoint file:  "s-4-NO2Ph+_UB3LYP-aug-cc-pVDZ-Opt.chk"
 -----------------------------
 s-4-NO2Ph+_UB3LYP-aug-cc-pVDZ
 -----------------------------
 Charge =  1 Multiplicity = 1

                         Standard orientation:
 ---------------------------------------------------------------------
 Center     Atomic      Atomic             Coordinates (Angstroms)
 Number     Number       Type             X           Y           Z
 ---------------------------------------------------------------------
      1          6           0       -0.496778    1.230439    0.000143
      2          6           0       -1.925650    1.282033    0.000319
      3          6           0       -2.285515   -0.000073   -0.000087
      4          6           0       -1.925334   -1.282089   -0.000299
      5          6           0       -0.496582   -1.230547   -0.000018
      6          6           0        0.164749   -0.000007    0.000153
      7          1           0        0.054770    2.173521   -0.000553
      8          1           0       -2.518955    2.195109   -0.000849
      9          1           0       -2.518823   -2.195142    0.000461
     10          1           0        0.055000   -2.173542    0.000421
     11          7           0        1.655306    0.000048    0.000024
     12          8           0        2.195750   -1.094160   -0.000003
     13          8           0        2.195692    1.094307   -0.000110
 ---------------------------------------------------------------------

 SCF Done:  E(UB3LYP) =  -435.792059769     A.U. after    1 cycles

 Mulliken charges and spin densities:
               1          2
     1  C    1.386978  -0.000000
     2  C    0.377562  -0.000000
     3  C   -0.106850   0.000000
     4  C    0.377038  -0.000000
     5  C    1.387361  -0.000000
     6  C    0.752520   0.000000
     7  H   -0.744336   0.000000
     8  H   -0.597905   0.000000
     9  H   -0.597570   0.000000
    10  H   -0.744379   0.000000
    11  N    0.715741  -0.000000
    12  O   -0.603066   0.000000
    13  O   -0.603094   0.000000
 Sum of Mulliken charges =   1.00000   0.00000

 Dipole moment (field-independent basis, Debye):
    X=             -9.6926    Y=             -0.0000    Z=             -0.0004  Tot=              9.6926
 Quadrupole moment (field-independent basis, Debye-Ang):
   XX=            -31.9451   YY=            -32.4249   ZZ=            -49.3467
   XY=             -0.0013   XZ=              0.0019   YZ=             -0.0056

  Exact polarizability:  96.614  -0.000  92.181   0.001   0.001  41.562
 Approx polarizability: 160.264  -0.001 199.252   0.003   0.013  64.238

 ESP charges:
               1
     1  C    0.085266
     2  C   -0.423696
     3  C    0.673891
     4  C   -0.423790
     5  C    0.085425
     6  C   -0.143622
     7  H    0.210284
     8  H    0.344324
     9  H    0.344302
    10  H    0.210241
    11  N    0.700806
    12  O   -0.331712
    13  O   -0.331718
 Sum of ESP charges =   1.00000

 Summary of Natural Population Analysis:

                                       Natural Population
                Natural  -----------------------------------------------
    Atom  No    Charge         Core      Valence    Rydberg      Total
 -----------------------------------------------------------------------
      C    1   -0.06391      0.99945     2.05497    0.00949     3.06391
      C    2   -0.14816      0.99931     2.13872    0.01013     3.14816
      C    3    0.28067      0.99941     1.71411    0.00581     2.71933
      C    4   -0.14820      0.99931     2.13876    0.01013     3.14820
      C    5   -0.06389      0.99945     2.05496    0.00949     3.06389
      C    6    0.03896      0.99932     1.94877    0.01295     2.96104
      H    7    0.16500      0.00000     0.33239    0.00261     0.33500
      H    8    0.17367      0.00000     0.32440    0.00193     0.32633
      H    9    0.17368      0.00000     0.32439    0.00193     0.32632
      H   10    0.16499      0.00000     0.33240    0.00261     0.33501
      N   11    0.25027      0.99969     2.22420    0.02584     3.24973
      O   12   -0.16153      0.99989     3.14912    0.01253     4.16153
      O   13   -0.16154      0.99989     3.14912    0.01253     4.16154
 =======================================================================
   * Total *    0.50000      8.99573    21.88631    0.11797    31.00000

                      1                      2                      3
                      A                      A                      A
 Frequencies --     58.5947               190.9320               218.4048
 Red. masses --      8.3364                 6.6671                 6.2481
 Frc consts  --      0.0169                 0.1432                 0.1756
 IR Inten    --      0.0000                 0.3101                 0.0226

                      4                      5                      6
                      A                      A                      A
 Frequencies --    385.8213               395.5977               401.0104
 Red. masses --     10.2721                 4.0954                 1.8697
 Frc consts  --      0.9009                 0.3776                 0.1771
 IR Inten    --      7.7343                 9.6687                 0.0010

                      7                      8                      9
                      A                      A                      A
 Frequencies --    426.3228               475.5430               517.8337
 Red. masses --      6.9694                 1.7194                 8.0363
 Frc consts  --      0.7463                 0.2291                 1.2697
 IR Inten    --     19.7859                 0.0004                 2.7976

                     10                     11                     12
                      A                      A                      A
 Frequencies --    557.0500               693.2219               704.9700
 Red. masses --      3.1256                 5.3176                 1.9543
 Frc consts  --      0.5714                 1.5056                 0.5723
 IR Inten    --      3.5647                 7.6963                96.9171

                     13                     14                     15
                      A                      A                      A
 Frequencies --    794.2336               829.8554               928.4407
 Red. masses --      2.4120                 7.9719                 1.6718
 Frc consts  --      0.8965                 3.2346                 0.8491
 IR Inten    --     13.7709                40.0188                 5.6444

                     16                     17                     18
                      A                      A                      A
 Frequencies --    937.0015               944.4623              1019.3770
 Red. masses --      6.4529                 1.3009                 1.7387
 Frc consts  --      3.3380                 0.6837                 1.0645
 IR Inten    --      0.0266                 0.0001                37.7858

                     19                     20                     21
                      A                      A                      A
 Frequencies --   1024.5420              1099.4621              1131.8836
 Red. masses --      1.2493                 1.2256                 6.0531
 Frc consts  --      0.7726                 0.8729                 4.5691
 IR Inten    --     10.1572                 2.5011                 0.4160

                     22                     23                     24
                      A                      A                      A
 Frequencies --   1138.9608              1226.7959              1355.7485
 Red. masses --      4.1220                 1.2259                 3.3979
 Frc consts  --      3.1505                 1.0870                 3.6797
 IR Inten    --     64.4072                11.8553                15.0427

                     25                     26                     27
                      A                      A                      A
 Frequencies --   1373.2433              1461.0830              1497.8445
 Red. masses --     13.8211                 8.0438                 4.0699
 Frc consts  --     15.3564                10.1172                 5.3799
 IR Inten    --    144.2362                 3.0812                 2.1047

                     28                     29                     30
                      A                      A                      A
 Frequencies --   1647.0901              1787.5362              3180.4678
 Red. masses --     14.1562                 8.7673                 1.0883
 Frc consts  --     22.6273                16.5054                 6.4860
 IR Inten    --    211.5406                38.0276                49.4218

                     31                     32                     33
                      A                      A                      A
 Frequencies --   3184.1057              3219.9609              3224.9216
 Red. masses --      1.0919                 1.0988                 1.1005
 Frc consts  --      6.5224                 6.7121                 6.7431
 IR Inten    --     87.7738               229.7691                54.8514

 - Thermochemistry -
 -------------------
 Temperature   298.150 Kelvin.  Pressure   1.00000 Atm.
 Atom     1 has atomic number  6 and mass  12.00000

 Molecular mass:   122.02420 amu.
 Principal axes and moments of inertia in atomic units:
                           1         2         3
     Eigenvalues --   476.112121296.682751772.79484
           X            1.00000  -0.00000   0.00000
           Y            0.00000   1.00000  -0.00004
           Z           -0.00000   0.00004   1.00000
 This molecule is an asymmetric top.
 Rotational symmetry number  1.
 Warning -- assumption of classical behavior for rotation
           may cause significant error
 Rotational temperatures (Kelvin)      0.18192     0.06680     0.04886
 Rotational constants (GHZ):           3.79058     1.39181     1.01802
 Zero-point vibrational energy     227483.8 (Joules/Mol)
                                   54.36993 (Kcal/Mol)
 Warning -- explicit consideration of  10 degrees of freedom as
           vibrations may cause significant error
 Vibrational temperatures:     84.30   274.71   314.24   555.11   569.18
          (Kelvin)            576.96   613.38   684.20   745.05   801.47
                              997.39  1014.29  1142.73  1193.98  1335.82
                             1348.14  1358.87  1466.66  1474.09  1581.88
                             1628.53  1638.71  1765.09  1950.62  1975.79
                             2102.17  2155.06  2369.80  2571.87  4575.98
                             4581.22  4632.81  4639.94

 Zero-point correction=                           0.086644 (Hartree/Particle)
 Thermal correction to Energy=                    0.093971
 Thermal correction to Enthalpy=                  0.094915
 Thermal correction to Gibbs Free Energy=         0.054524
 Sum of electronic and zero-point Energies=           -435.705416
 Sum of electronic and thermal Energies=              -435.698089
 Sum of electronic and thermal Enthalpies=            -435.697145
 Sum of electronic and thermal Free Energies=         -435.737536

                     E (Thermal)             CV                S
                      KCal/Mol        Cal/Mol-Kelvin    Cal/Mol-Kelvin
 Total                   58.968             27.531             85.010
 Electronic               0.000              0.000              0.000
 Translational            0.889              2.981             40.311
 Rotational               0.889              2.981             28.483
 Vibrational             57.190             21.570             16.216
 Vibration     1          0.596              1.974              4.504
 Vibration     2          0.634              1.852              2.219
 Vibration     3          0.646              1.813              1.972
 Vibration     4          0.755              1.500              1.016
 Vibration     5          0.762              1.480              0.979
 Vibration     6          0.767              1.468              0.959
 Vibration     7          0.788              1.413              0.871
 Vibration     8          0.832              1.304              0.722
 Vibration     9          0.873              1.210              0.615
 Vibration    10          0.913              1.124              0.530

 Optimization completed.
    -- Stationary point found.
 Normal termination of Gaussian 16 at Sat Nov  5 22:52:49 2016.
