 Gaussian 16, Revision A.03,
 Gaussian 16:  ES64L-G16RevA.03 25-Dec-2016

 ----------------------------------------------------------------------
 #p opt=(maxcycles=777) freq ub3lyp/aug-cc-pVDZ pop=(Bonding,AllOrbital
 s,mk,no,nboread)
 ----------------------------------------------------------------------

 -------------------------
 s-C6H4_UB3LYP-aug-cc-pVDZ
 -------------------------
 Symbolic Z-matrix:
 Charge =  0 Multiplicity = 1

 SCF Done:  E(UB3LYP) =  -230.937356250     A.U. after   13 cycles
 SCF Done:  E(UB3LYP) =  -230.937357433     A.U. after    9 cycles
 Optimization completed.
    -- Stationary point found.
 Normal termination of Gaussian 16 at Sat Nov  5 23:08:01 2016.

 ----------------------------------------------------------------------
 #P Geom=AllCheck Guess=TCheck SCRF=Check GenChk UB3LYP/Aug-CC-pVDZ Fre
 q
 ----------------------------------------------------------------------

 Structure from the checkpoint file:  "s-C6H4_UB3LYP-aug-cc-pVDZ-Opt.chk"
 -------------------------
 s-C6H4_UB3LYP-aug-cc-pVDZ
 -------------------------
 Charge =  0 Multiplicity = 1

                         Standard orientation:
 ---------------------------------------------------------------------
 Center     Atomic      Atomic             Coordinates (Angstroms)
 Number     Number       Type             X           Y           Z
 ---------------------------------------------------------------------
      1          6           0        0.626285   -1.239403   -0.000081
      2          6           0       -0.627273   -1.239488    0.000001
      3          6           0       -1.465133   -0.133093    0.000076
      4          6           0       -0.703925    1.059808   -0.000062
      5          6           0        0.704712    1.059479    0.000069
      6          6           0        1.465150   -0.133920    0.000043
      7          1           0       -2.553605   -0.134124    0.000026
      8          1           0       -1.232364    2.015329   -0.000210
      9          1           0        1.233463    2.014818   -0.000062
     10          1           0        2.553614   -0.136310   -0.000029
 ---------------------------------------------------------------------

 SCF Done:  E(UB3LYP) =  -230.937357433     A.U. after    1 cycles

 Mulliken charges and spin densities:
               1          2
     1  C   -0.481469   0.000000
     2  C   -0.484884   0.000000
     3  C    0.880514  -0.000000
     4  C    0.909949  -0.000000
     5  C    0.910392  -0.000000
     6  C    0.880953   0.000000
     7  H   -0.574634  -0.000000
     8  H   -0.733179  -0.000000
     9  H   -0.732946  -0.000000
    10  H   -0.574697   0.000000
 Sum of Mulliken charges =  -0.00000   0.00000

 Dipole moment (field-independent basis, Debye):
    X=              0.0026    Y=              1.7082    Z=             -0.0003  Tot=              1.7082
 Quadrupole moment (field-independent basis, Debye-Ang):
   XX=            -29.8373   YY=            -35.5313   ZZ=            -38.1970
   XY=             -0.0054   XZ=              0.0000   YZ=             -0.0005

  Exact polarizability:  86.271   0.003  75.312  -0.000   0.000  42.311
 Approx polarizability: 174.855   0.013 129.459  -0.002   0.001  62.354

 ESP charges:
               1
     1  C   -0.075925
     2  C   -0.084378
     3  C    0.014367
     4  C   -0.137937
     5  C   -0.131514
     6  C    0.005807
     7  H    0.092988
     8  H    0.111103
     9  H    0.110643
    10  H    0.094846
 Sum of ESP charges =  -0.00000

 Summary of Natural Population Analysis:

                                       Natural Population
                Natural  -----------------------------------------------
    Atom  No    Charge         Core      Valence    Rydberg      Total
 -----------------------------------------------------------------------
      C    1    0.00904      0.99895     1.97827    0.01374     2.99096
      C    2    0.00880      0.99895     1.97850    0.01375     2.99120
      C    3   -0.13353      0.99943     2.12471    0.00939     3.13353
      C    4   -0.11612      0.99951     2.10893    0.00769     3.11612
      C    5   -0.11610      0.99951     2.10891    0.00769     3.11610
      C    6   -0.13360      0.99943     2.12478    0.00939     3.13360
      H    7    0.11966      0.00000     0.37812    0.00222     0.38034
      H    8    0.12108      0.00000     0.37688    0.00204     0.37892
      H    9    0.12109      0.00000     0.37687    0.00204     0.37891
      H   10    0.11969      0.00000     0.37809    0.00222     0.38031
 =======================================================================
   * Total *   -0.00000      5.99578    13.93404    0.07017    20.00000

                      1                      2                      3
                      A                      A                      A
 Frequencies --    394.3850               401.8841               435.2593
 Red. masses --      2.6732                10.6540                 9.1474
 Frc consts  --      0.2450                 1.0138                 1.0210
 IR Inten    --      6.2124               115.8650                 0.0000

                      4                      5                      6
                      A                      A                      A
 Frequencies --    599.8459               618.4340               742.7686
 Red. masses --      2.9701                 7.2290                 1.2385
 Frc consts  --      0.6296                 1.6290                 0.4026
 IR Inten    --      0.0000                 0.4801                81.5043

                      7                      8                      9
                      A                      A                      A
 Frequencies --    835.4825               858.0993               911.1326
 Red. masses --      6.1949                 1.2541                 1.3700
 Frc consts  --      2.5478                 0.5441                 0.6701
 IR Inten    --     30.2805                 0.0001                 0.1142

                     10                     11                     12
                      A                      A                      A
 Frequencies --    967.6883               997.3979              1076.2678
 Red. masses --      1.3471                 2.3603                 4.0493
 Frc consts  --      0.7432                 1.3834                 2.7636
 IR Inten    --      0.0000                 7.7682                22.2893

                     13                     14                     15
                      A                      A                      A
 Frequencies --   1102.2950              1153.9782              1257.8991
 Red. masses --      1.4366                 1.1464                 1.3998
 Frc consts  --      1.0285                 0.8994                 1.3050
 IR Inten    --      1.7212                 0.0260                 0.1975

                     16                     17                     18
                      A                      A                      A
 Frequencies --   1308.9675              1414.6434              1460.7724
 Red. masses --      2.5419                 2.7516                 4.0037
 Frc consts  --      2.5660                 3.2444                 5.0336
 IR Inten    --      0.7680                 4.1952                11.4871

                     19                     20                     21
                      A                      A                      A
 Frequencies --   1475.9329              2014.3205              3169.3408
 Red. masses --      2.8925                11.2745                 1.0853
 Frc consts  --      3.7124                26.9527                 6.4231
 IR Inten    --      1.3991                 0.1511                 0.9286

                     22                     23                     24
                      A                      A                      A
 Frequencies --   3184.1008              3205.5258              3208.7940
 Red. masses --      1.0917                 1.0941                 1.0962
 Frc consts  --      6.5210                 6.6237                 6.6497
 IR Inten    --      3.3186                23.1364                 6.5064

 - Thermochemistry -
 -------------------
 Temperature   298.150 Kelvin.  Pressure   1.00000 Atm.
 Atom     1 has atomic number  6 and mass  12.00000

 Molecular mass:    76.03130 amu.
 Principal axes and moments of inertia in atomic units:
                           1         2         3
     Eigenvalues --   258.13042 318.04330 576.17372
           X            1.00000  -0.00023   0.00000
           Y            0.00023   1.00000  -0.00001
           Z           -0.00000   0.00001   1.00000
 This molecule is an asymmetric top.
 Rotational symmetry number  1.
 Rotational temperatures (Kelvin)      0.33554     0.27233     0.15033
 Rotational constants (GHZ):           6.99159     5.67451     3.13229
 Zero-point vibrational energy     196159.0 (Joules/Mol)
                                   46.88311 (Kcal/Mol)
 Warning -- explicit consideration of   5 degrees of freedom as
           vibrations may cause significant error
 Vibrational temperatures:    567.43   578.22   626.24   863.04   889.79
          (Kelvin)           1068.68  1202.07  1234.61  1310.92  1392.29
                             1435.03  1548.51  1585.96  1660.32  1809.84
                             1883.31  2035.36  2101.73  2123.54  2898.16
                             4559.97  4581.21  4612.04  4616.74

 Zero-point correction=                           0.074713 (Hartree/Particle)
 Thermal correction to Energy=                    0.079229
 Thermal correction to Enthalpy=                  0.080173
 Thermal correction to Gibbs Free Energy=         0.047324
 Sum of electronic and zero-point Energies=           -230.862644
 Sum of electronic and thermal Energies=              -230.858128
 Sum of electronic and thermal Enthalpies=            -230.857184
 Sum of electronic and thermal Free Energies=         -230.890033

                     E (Thermal)             CV                S
                      KCal/Mol        Cal/Mol-Kelvin    Cal/Mol-Kelvin
 Total                   49.717             16.920             69.136
 Electronic               0.000              0.000              0.000
 Translational            0.889              2.981             38.901
 Rotational               0.889              2.981             25.362
 Vibrational             47.940             10.958              4.873
 Vibration     1          0.761              1.482              0.984
 Vibration     2          0.767              1.466              0.956
 Vibration     3          0.796              1.393              0.842
 Vibration     4          0.958              1.032              0.450
 Vibration     5          0.978              0.993              0.419

 Optimization completed.
    -- Stationary point found.
 Normal termination of Gaussian 16 at Sat Nov  5 23:12:12 2016.
