 Gaussian 16, Revision A.03,
 Gaussian 16:  ES64L-G16RevA.03 25-Dec-2016

 ----------------------------------------------------------------------
 #p opt=(maxcycles=777) freq ub3lyp/aug-cc-pVDZ pop=(Bonding,AllOrbital
 s,mk,no,nboread)
 ----------------------------------------------------------------------

 ------------------------
 s-Ph+_UB3LYP-aug-cc-pVDZ
 ------------------------
 Symbolic Z-matrix:
 Charge =  1 Multiplicity = 1

 SCF Done:  E(UB3LYP) =  -231.282216268     A.U. after   13 cycles
 SCF Done:  E(UB3LYP) =  -231.282216865     A.U. after    9 cycles
 Optimization completed.
    -- Stationary point found.
 Normal termination of Gaussian 16 at Sat Nov  5 23:13:39 2016.

 ----------------------------------------------------------------------
 #P Geom=AllCheck Guess=TCheck SCRF=Check GenChk UB3LYP/Aug-CC-pVDZ Fre
 q
 ----------------------------------------------------------------------

 Structure from the checkpoint file:  "s-Ph+_UB3LYP-aug-cc-pVDZ-Opt.chk"
 ------------------------
 s-Ph+_UB3LYP-aug-cc-pVDZ
 ------------------------
 Charge =  1 Multiplicity = 1

                         Standard orientation:
 ---------------------------------------------------------------------
 Center     Atomic      Atomic             Coordinates (Angstroms)
 Number     Number       Type             X           Y           Z
 ---------------------------------------------------------------------
      1          6           0        1.216747    0.615199   -0.000437
      2          6           0        1.275317   -0.821472    0.000329
      3          6           0       -0.000082   -1.194406   -0.000177
      4          6           0       -1.275475   -0.821288   -0.000187
      5          6           0       -1.216639    0.615353    0.000529
      6          6           0        0.000115    1.300029   -0.000031
      7          1           0        2.182391    1.126237   -0.000528
      8          1           0        2.195753   -1.401393    0.001182
      9          1           0       -2.195848   -1.401327   -0.001010
     10          1           0       -2.182257    1.126431    0.000258
     11          1           0        0.000065    2.389561   -0.000052
 ---------------------------------------------------------------------

 SCF Done:  E(UB3LYP) =  -231.282216865     A.U. after    1 cycles

 Mulliken charges and spin densities:
               1          2
     1  C    1.108084   0.000000
     2  C    0.463950  -0.000000
     3  C    0.280546   0.000000
     4  C    0.463415   0.000000
     5  C    1.108250   0.000000
     6  C    0.578647  -0.000000
     7  H   -0.642381  -0.000000
     8  H   -0.559465   0.000000
     9  H   -0.559430  -0.000000
    10  H   -0.642452  -0.000000
    11  H   -0.599163  -0.000000
 Sum of Mulliken charges =   1.00000  -0.00000

 Dipole moment (field-independent basis, Debye):
    X=             -0.0000    Y=             -1.2371    Z=             -0.0002  Tot=              1.2371
 Quadrupole moment (field-independent basis, Debye-Ang):
   XX=            -16.4485   YY=            -20.6749   ZZ=            -35.9114
   XY=              0.0000   XZ=              0.0042   YZ=             -0.0006

  Exact polarizability:  75.472  -0.000  66.187  -0.002   0.001  35.203
 Approx polarizability: 141.767  -0.001 124.478  -0.011   0.003  52.644

 ESP charges:
               1
     1  C    0.059193
     2  C   -0.425516
     3  C    0.654285
     4  C   -0.434882
     5  C    0.079257
     6  C   -0.234408
     7  H    0.207224
     8  H    0.336586
     9  H    0.338436
    10  H    0.200630
    11  H    0.219194
 Sum of ESP charges =   1.00000

 Summary of Natural Population Analysis:

                                       Natural Population
                Natural  -----------------------------------------------
    Atom  No    Charge         Core      Valence    Rydberg      Total
 -----------------------------------------------------------------------
      C    1   -0.07019      0.99951     2.06279    0.00788     3.07019
      C    2   -0.15476      0.99932     2.14570    0.00973     3.15476
      C    3    0.26953      0.99940     1.72549    0.00558     2.73047
      C    4   -0.15474      0.99932     2.14568    0.00973     3.15474
      C    5   -0.07019      0.99951     2.06280    0.00788     3.07019
      C    6   -0.10578      0.99947     2.09838    0.00794     3.10578
      H    7    0.15039      0.00000     0.34767    0.00194     0.34961
      H    8    0.17004      0.00000     0.32801    0.00194     0.32996
      H    9    0.17004      0.00000     0.32802    0.00194     0.32996
      H   10    0.15039      0.00000     0.34767    0.00194     0.34961
      H   11    0.14527      0.00000     0.35251    0.00222     0.35473
 =======================================================================
   * Total *    0.50000      5.99654    13.94473    0.05873    20.00000

                      1                      2                      3
                      A                      A                      A
 Frequencies --    381.7884               390.8735               414.0432
 Red. masses --      1.4883                 4.2889                 6.3059
 Frc consts  --      0.1278                 0.3861                 0.6369
 IR Inten    --      0.0010                10.1558                20.7742

                      4                      5                      6
                      A                      A                      A
 Frequencies --    454.3515               534.6776               653.6223
 Red. masses --      2.2746                 2.3993                 5.7782
 Frc consts  --      0.2767                 0.4041                 1.4545
 IR Inten    --      0.0005                 3.0658                 4.2884

                      7                      8                      9
                      A                      A                      A
 Frequencies --    692.9241               837.8478               892.1292
 Red. masses --      1.2314                 1.2874                 4.9718
 Frc consts  --      0.3483                 0.5325                 2.3314
 IR Inten    --    136.8215                 0.5447                 0.0219

                     10                     11                     12
                      A                      A                      A
 Frequencies --    930.4058               974.9487               978.2476
 Red. masses --      1.3000                 2.1009                 1.4386
 Frc consts  --      0.6631                 1.1766                 0.8111
 IR Inten    --      0.0000                 5.9367                 0.7194

                     13                     14                     15
                      A                      A                      A
 Frequencies --    998.7840              1073.5093              1099.2264
 Red. masses --      1.6857                 2.8435                 1.5990
 Frc consts  --      0.9908                 1.9307                 1.1384
 IR Inten    --      0.8783                13.0671                44.6482

                     16                     17                     18
                      A                      A                      A
 Frequencies --   1132.7326              1181.6058              1280.9086
 Red. masses --      1.2745                 1.4555                 1.3550
 Frc consts  --      0.9635                 1.1973                 1.3099
 IR Inten    --      0.1603                 8.1559                12.4575

                     19                     20                     21
                      A                      A                      A
 Frequencies --   1349.8044              1477.7160              1482.8563
 Red. masses --      4.0122                 2.9060                 3.1499
 Frc consts  --      4.3070                 3.7388                 4.0808
 IR Inten    --     37.7567                 0.2134                11.2924

                     22                     23                     24
                      A                      A                      A
 Frequencies --   1794.5140              3180.8513              3182.7442
 Red. masses --      8.5883                 1.0905                 1.0892
 Frc consts  --     16.2948                 6.5009                 6.5006
 IR Inten    --     31.3730                24.2886                20.9707

                     25                     26                     27
                      A                      A                      A
 Frequencies --   3217.7913              3232.7462              3236.6722
 Red. masses --      1.0956                 1.0986                 1.1003
 Frc consts  --      6.6840                 6.7644                 6.7913
 IR Inten    --     25.8311               193.0613                43.1386

 - Thermochemistry -
 -------------------
 Temperature   298.150 Kelvin.  Pressure   1.00000 Atm.
 Atom     1 has atomic number  6 and mass  12.00000

 Molecular mass:    77.03913 amu.
 Principal axes and moments of inertia in atomic units:
                           1         2         3
     Eigenvalues --   267.48917 335.27168 602.76077
           X            1.00000  -0.00001   0.00003
           Y            0.00001   1.00000  -0.00001
           Z           -0.00003   0.00001   1.00000
 This molecule is an asymmetric top.
 Rotational symmetry number  1.
 Rotational temperatures (Kelvin)      0.32380     0.25834     0.14370
 Rotational constants (GHZ):           6.74697     5.38292     2.99413
 Zero-point vibrational energy     221658.0 (Joules/Mol)
                                   52.97753 (Kcal/Mol)
 Warning -- explicit consideration of   5 degrees of freedom as
           vibrations may cause significant error
 Vibrational temperatures:    549.31   562.38   595.72   653.71   769.28
          (Kelvin)            940.42   996.96  1205.48  1283.57  1338.65
                             1402.73  1407.48  1437.03  1544.54  1581.54
                             1629.75  1700.07  1842.94  1942.07  2126.10
                             2133.50  2581.91  4576.54  4579.26  4629.68
                             4651.20  4656.85

 Zero-point correction=                           0.084425 (Hartree/Particle)
 Thermal correction to Energy=                    0.089323
 Thermal correction to Enthalpy=                  0.090267
 Thermal correction to Gibbs Free Energy=         0.056783
 Sum of electronic and zero-point Energies=           -231.197792
 Sum of electronic and thermal Energies=              -231.192894
 Sum of electronic and thermal Enthalpies=            -231.191950
 Sum of electronic and thermal Free Energies=         -231.225434

                     E (Thermal)             CV                S
                      KCal/Mol        Cal/Mol-Kelvin    Cal/Mol-Kelvin
 Total                   56.051             18.959             70.474
 Electronic               0.000              0.000              0.000
 Translational            0.889              2.981             38.940
 Rotational               0.889              2.981             25.495
 Vibrational             54.274             12.997              6.039
 Vibration     1          0.751              1.509              1.032
 Vibration     2          0.759              1.490              0.997
 Vibration     3          0.778              1.440              0.912
 Vibration     4          0.813              1.351              0.783
 Vibration     5          0.890              1.173              0.577

 Optimization completed.
    -- Stationary point found.
 Normal termination of Gaussian 16 at Sat Nov  5 23:19:03 2016.
