 Gaussian 16, Revision A.03,
 Gaussian 16:  ES64L-G16RevA.03 25-Dec-2016

 ----------------------------------------------------------------------
 #p opt=(maxcycles=777) freq ub3lyp/aug-cc-pVDZ pop=(Bonding,AllOrbital
 s,mk,no,nboread)
 ----------------------------------------------------------------------

 -----------------------------
 t-4-NO2Ph+_UB3LYP-aug-cc-pVDZ
 -----------------------------
 Symbolic Z-matrix:
 Charge =  1 Multiplicity = 3

 SCF Done:  E(UB3LYP) =  -435.766103249     A.U. after   23 cycles
 SCF Done:  E(UB3LYP) =  -435.766103656     A.U. after   16 cycles
 SCF Done:  E(UB3LYP) =  -435.766097668     A.U. after   17 cycles
 SCF Done:  E(UB3LYP) =  -435.766103982     A.U. after   16 cycles
 SCF Done:  E(UB3LYP) =  -435.766104109     A.U. after   15 cycles
 SCF Done:  E(UB3LYP) =  -435.766104316     A.U. after   19 cycles
 Optimization completed.
    -- Stationary point found.
 Normal termination of Gaussian 16 at Sat Jun 27 02:32:34 2020.

 ----------------------------------------------------------------------
 #P Geom=AllCheck Guess=TCheck SCRF=Check GenChk UB3LYP/Aug-CC-pVDZ Fre
 q
 ----------------------------------------------------------------------

 Structure from the checkpoint file:  "t-4-NO2Ph+_UB3LYP-aug-cc-pVDZ-Opt.chk"
 -----------------------------
 t-4-NO2Ph+_UB3LYP-aug-cc-pVDZ
 -----------------------------
 Charge =  1 Multiplicity = 3

                         Standard orientation:
 ---------------------------------------------------------------------
 Center     Atomic      Atomic             Coordinates (Angstroms)
 Number     Number       Type             X           Y           Z
 ---------------------------------------------------------------------
      1          6           0        0.476088    1.246704    0.209695
      2          6           0        1.857848    1.246956    0.211225
      3          6           0        2.475624    0.000221   -0.000309
      4          6           0        1.858284   -1.246506   -0.211540
      5          6           0        0.476487   -1.246345   -0.209629
      6          6           0       -0.184994    0.000268   -0.000352
      7          1           0       -0.107298    2.156280    0.354658
      8          1           0        2.437375    2.158129    0.363553
      9          1           0        2.437772   -2.157620   -0.364165
     10          1           0       -0.106880   -2.155978   -0.354484
     11          7           0       -1.640450    0.000058   -0.000566
     12          8           0       -2.181471   -0.701078    0.839102
     13          8           0       -2.185259    0.699952   -0.837869
 ---------------------------------------------------------------------

 SCF Done:  E(UB3LYP) =  -435.766104316     A.U. after    1 cycles

 Mulliken charges and spin densities:
               1          2
     1  C    1.114454   0.042617
     2  C    0.977570  -0.036334
     3  C   -0.643477   1.346810
     4  C    0.978246  -0.038932
     5  C    1.112892   0.044656
     6  C    0.210368   0.392475
     7  H   -0.676508   0.002051
     8  H   -0.493244   0.008130
     9  H   -0.493165   0.008215
    10  H   -0.676663   0.001995
    11  N    0.557318  -0.052622
    12  O   -0.483690   0.143288
    13  O   -0.484102   0.137650
 Sum of Mulliken charges =   1.00000   2.00000

 Dipole moment (field-independent basis, Debye):
    X=              5.2404    Y=              0.0013    Z=             -0.0016  Tot=              5.2404
 Quadrupole moment (field-independent basis, Debye-Ang):
   XX=            -35.9649   YY=            -33.4790   ZZ=            -49.6539
   XY=              0.0078   XZ=             -0.0010   YZ=              4.0452

  Exact polarizability: 149.218   0.099  81.792  -0.108  -1.223  52.066
 Approx polarizability: 286.578   0.464 147.006  -0.449 -17.920 101.945

 ESP charges:
               1
     1  C   -0.206374
     2  C    0.069577
     3  C    0.108338
     4  C    0.068358
     5  C   -0.205177
     6  C    0.211993
     7  H    0.222583
     8  H    0.176308
     9  H    0.176516
    10  H    0.222313
    11  N    0.620569
    12  O   -0.232243
    13  O   -0.232760
 Sum of ESP charges =   1.00000

 Summary of Natural Population Analysis:

                                       Natural Population
                Natural  -----------------------------------------------
    Atom  No    Charge         Core      Valence    Rydberg      Total
 -----------------------------------------------------------------------
      C    1   -0.05210      0.99944     2.04362    0.00904     3.05210
      C    2   -0.12619      0.99945     2.11776    0.00899     3.12619
      C    3    0.83786      0.99897     1.15594    0.00723     2.16214
      C    4   -0.12759      0.99945     2.11915    0.00899     3.12759
      C    5   -0.05095      0.99944     2.04248    0.00904     3.05095
      C    6    0.27261      0.99941     1.71417    0.01380     2.72739
      H    7    0.14984      0.00000     0.34769    0.00247     0.35016
      H    8    0.15655      0.00000     0.34153    0.00192     0.34345
      H    9    0.15660      0.00000     0.34148    0.00192     0.34340
      H   10    0.14982      0.00000     0.34771    0.00247     0.35018
      N   11    0.22384      0.99965     2.25025    0.02625     3.27616
      O   12   -0.04362      0.99989     3.03056    0.01317     4.04362
      O   13   -0.04667      0.99989     3.03359    0.01319     4.04667
 =======================================================================
   * Total *    1.50000      8.99558    20.88592    0.11849    30.00000

                      1                      2                      3
                      A                      A                      A
 Frequencies --     49.3661                88.1594               180.0913
 Red. masses --      8.3134                11.4304                 6.2744
 Frc consts  --      0.0119                 0.0523                 0.1199
 IR Inten    --      0.2775                 0.2552                 3.2496

                      4                      5                      6
                      A                      A                      A
 Frequencies --    244.1497               346.9346               363.7429
 Red. masses --      6.0398                 2.8350                10.2296
 Frc consts  --      0.2121                 0.2010                 0.7974
 IR Inten    --      8.0357                 0.4447                 1.4977

                      7                      8                      9
                      A                      A                      A
 Frequencies --    483.8732               518.0238               652.3855
 Red. masses --      3.1421                 7.1565                 8.3219
 Frc consts  --      0.4334                 1.1315                 2.0868
 IR Inten    --      7.3855                 0.1070                 2.0099

                     10                     11                     12
                      A                      A                      A
 Frequencies --    690.2466               726.9157               764.2617
 Red. masses --      4.2461                 5.6836                 1.2658
 Frc consts  --      1.1919                 1.7695                 0.4356
 IR Inten    --      3.8624                13.0484                 2.5091

                     13                     14                     15
                      A                      A                      A
 Frequencies --    782.7190               822.6773               961.2216
 Red. masses --      7.7803                 1.6883                 5.2300
 Frc consts  --      2.8084                 0.6732                 2.8471
 IR Inten    --     29.7068                49.8842                37.7314

                     16                     17                     18
                      A                      A                      A
 Frequencies --    979.3379               982.8161               985.2081
 Red. masses --      1.5932                 1.3055                 2.2395
 Frc consts  --      0.9003                 0.7430                 1.2808
 IR Inten    --      1.3182                 0.3008                 7.8207

                     19                     20                     21
                      A                      A                      A
 Frequencies --   1126.4260              1137.1003              1185.7981
 Red. masses --      1.2393                 3.2253                 1.3797
 Frc consts  --      0.9265                 2.4571                 1.1430
 IR Inten    --      4.1595                 5.8023                 1.9259

                     22                     23                     24
                      A                      A                      A
 Frequencies --   1234.6017              1360.8706              1382.7703
 Red. masses --      2.2569                 3.0331                 3.5000
 Frc consts  --      2.0268                 3.3096                 3.9429
 IR Inten    --      2.4647                19.5812                 7.2461

                     25                     26                     27
                      A                      A                      A
 Frequencies --   1409.0951              1417.9377              1434.1713
 Red. masses --      1.8692                 8.5629                 3.9706
 Frc consts  --      2.1867                10.1434                 4.8118
 IR Inten    --    143.5944                 0.1181                45.3888

                     28                     29                     30
                      A                      A                      A
 Frequencies --   1473.5799              1592.4611              3199.3443
 Red. masses --     12.7795                 5.6430                 1.0883
 Frc consts  --     16.3498                 8.4314                 6.5635
 IR Inten    --     99.0420                48.4010                 4.7663

                     31                     32                     33
                      A                      A                      A
 Frequencies --   3200.5808              3212.0542              3213.5584
 Red. masses --      1.0907                 1.0977                 1.0999
 Frc consts  --      6.5831                 6.6730                 6.6921
 IR Inten    --     21.9351                55.9227                 0.2225

 - Thermochemistry -
 -------------------
 Temperature   298.150 Kelvin.  Pressure   1.00000 Atm.
 Atom     1 has atomic number  6 and mass  12.00000

 Molecular mass:   122.02420 amu.
 Principal axes and moments of inertia in atomic units:
                           1         2         3
     Eigenvalues --   479.196391390.183871690.63927
           X            1.00000  -0.00000  -0.00001
           Y            0.00000   0.99933   0.03650
           Z            0.00001  -0.03650   0.99933
 This molecule is an asymmetric top.
 Rotational symmetry number  1.
 Warning -- assumption of classical behavior for rotation
           may cause significant error
 Rotational temperatures (Kelvin)      0.18075     0.06230     0.05123
 Rotational constants (GHZ):           3.76618     1.29820     1.06749
 Zero-point vibrational energy     228501.6 (Joules/Mol)
                                   54.61319 (Kcal/Mol)
 Warning -- explicit consideration of   8 degrees of freedom as
           vibrations may cause significant error
 Vibrational temperatures:     71.03   126.84   259.11   351.28   499.16
          (Kelvin)            523.34   696.19   745.32   938.64   993.11
                             1045.87  1099.60  1126.16  1183.65  1382.98
                             1409.05  1414.05  1417.49  1620.68  1636.03
                             1706.10  1776.32  1957.99  1989.50  2027.37
                             2040.10  2063.45  2120.15  2291.20  4603.14
                             4604.92  4621.43  4623.59

 Zero-point correction=                           0.087032 (Hartree/Particle)
 Thermal correction to Energy=                    0.094584
 Thermal correction to Enthalpy=                  0.095529
 Thermal correction to Gibbs Free Energy=         0.052970
 Sum of electronic and zero-point Energies=           -435.679073
 Sum of electronic and thermal Energies=              -435.671520
 Sum of electronic and thermal Enthalpies=            -435.670576
 Sum of electronic and thermal Free Energies=         -435.713134

                     E (Thermal)             CV                S
                      KCal/Mol        Cal/Mol-Kelvin    Cal/Mol-Kelvin
 Total                   59.353             26.899             89.572
 Electronic               0.000              0.000              2.183
 Translational            0.889              2.981             40.311
 Rotational               0.889              2.981             28.512
 Vibrational             57.575             20.937             18.566
 Vibration     1          0.595              1.978              4.843
 Vibration     2          0.601              1.958              3.700
 Vibration     3          0.629              1.867              2.327
 Vibration     4          0.659              1.772              1.772
 Vibration     5          0.725              1.582              1.180
 Vibration     6          0.737              1.547              1.106
 Vibration     7          0.840              1.286              0.700
 Vibration     8          0.873              1.210              0.615

                           ! Non-Optimized Parameters !
 Normal termination of Gaussian 16 at Sat Jun 27 02:47:08 2020.
