 Gaussian 16, Revision A.03,
 Gaussian 16:  ES64L-G16RevA.03 25-Dec-2016

 ----------------------------------------------------------------------
 #p opt=(maxcycles=777) freq ub3lyp/aug-cc-pVDZ pop=(Bonding,AllOrbital
 s,mk,no,nboread)
 ----------------------------------------------------------------------

 ------------------------------
 t-4-MeOC6H3_UB3LYP-aug-cc-pVDZ
 ------------------------------
 Symbolic Z-matrix:
 Charge =  0 Multiplicity = 3

 SCF Done:  E(UB3LYP) =  -345.396112925     A.U. after   23 cycles
 SCF Done:  E(UB3LYP) =  -345.423989392     A.U. after   20 cycles
 SCF Done:  E(UB3LYP) =  -345.426288613     A.U. after   16 cycles
 SCF Done:  E(UB3LYP) =  -345.426442364     A.U. after   15 cycles
 SCF Done:  E(UB3LYP) =  -345.426460744     A.U. after   14 cycles
 SCF Done:  E(UB3LYP) =  -345.426463100     A.U. after   11 cycles
 SCF Done:  E(UB3LYP) =  -345.426463395     A.U. after   10 cycles
 Optimization completed.
    -- Stationary point found.
 Normal termination of Gaussian 16 at Sat Jun 27 00:10:24 2020.

 ----------------------------------------------------------------------
 #P Geom=AllCheck Guess=TCheck SCRF=Check GenChk UB3LYP/Aug-CC-pVDZ Fre
 q
 ----------------------------------------------------------------------

 Structure from the checkpoint file:  "t-4-MeOC6H3_UB3LYP-aug-cc-pVDZ-Opt.chk"
 ------------------------------
 t-4-MeOC6H3_UB3LYP-aug-cc-pVDZ
 ------------------------------
 Charge =  0 Multiplicity = 3

                         Standard orientation:
 ---------------------------------------------------------------------
 Center     Atomic      Atomic             Coordinates (Angstroms)
 Number     Number       Type             X           Y           Z
 ---------------------------------------------------------------------
      1          6           0        2.385875    0.246487    0.000344
      2          6           0        1.910255   -1.074045    0.000309
      3          6           0        0.565582   -1.360243    0.000030
      4          6           0       -0.356454   -0.286015   -0.000325
      5          8           0       -1.673636   -0.647771   -0.000737
      6          6           0       -2.654480    0.385235    0.000673
      7          6           0        0.105322    1.036461   -0.000382
      8          6           0        1.492991    1.295650   -0.000059
      9          1           0        0.193396   -2.386381    0.000178
     10          1           0       -3.622516   -0.124873    0.001320
     11          1           0       -2.571491    1.014449   -0.898890
     12          1           0       -2.569765    1.013592    0.900664
     13          1           0       -0.585428    1.876037   -0.000739
     14          1           0        1.850356    2.328161   -0.000180
 ---------------------------------------------------------------------

 SCF Done:  E(UB3LYP) =  -345.426463395     A.U. after    1 cycles

 Mulliken charges and spin densities:
               1          2
     1  C   -0.705517   1.005172
     2  C   -0.667783   1.001535
     3  C    0.984245  -0.085538
     4  C    0.915530   0.052659
     5  O   -0.650300  -0.002030
     6  C    1.197778   0.006635
     7  C    1.180963   0.019998
     8  C    1.046342  -0.061348
     9  H   -0.635380   0.026925
    10  H   -0.540277   0.000827
    11  H   -0.193187  -0.001283
    12  H   -0.192774  -0.001281
    13  H   -1.139983   0.008329
    14  H   -0.599657   0.029400
 Sum of Mulliken charges =  -0.00000   2.00000

 Dipole moment (field-independent basis, Debye):
    X=             -2.4000    Y=              1.5988    Z=              0.0011  Tot=              2.8838
 Quadrupole moment (field-independent basis, Debye-Ang):
   XX=            -46.6259   YY=            -43.7420   ZZ=            -49.9704
   XY=             -0.8468   XZ=             -0.0046   YZ=             -0.0023

  Exact polarizability: 110.889  -0.643  91.854   0.006  -0.004  57.114
 Approx polarizability: 167.833   1.936 157.203   0.018  -0.005  84.580

 ESP charges:
               1
     1  C   -0.085065
     2  C    0.008351
     3  C   -0.292952
     4  C    0.442835
     5  O   -0.342097
     6  C   -0.038313
     7  C   -0.255940
     8  C   -0.111766
     9  H    0.171252
    10  H    0.102681
    11  H    0.060561
    12  H    0.060510
    13  H    0.131686
    14  H    0.148256
 Sum of ESP charges =   0.00000

 Summary of Natural Population Analysis:

                                       Natural Population
                Natural  -----------------------------------------------
    Atom  No    Charge         Core      Valence    Rydberg      Total
 -----------------------------------------------------------------------
      C    1    0.50760      0.99874     1.48496    0.00870     2.49240
      C    2    0.52442      0.99880     1.46838    0.00840     2.47558
      C    3   -0.19200      0.99939     2.18346    0.00915     3.19200
      C    4    0.17483      0.99933     1.81396    0.01189     2.82517
      O    5   -0.27887      0.99985     3.26519    0.01383     4.27887
      C    6   -0.12882      0.99967     2.12278    0.00637     3.12882
      C    7   -0.14960      0.99943     2.14288    0.00728     3.14960
      C    8   -0.16580      0.99945     2.15807    0.00828     3.16580
      H    9    0.14502      0.00000     0.35289    0.00209     0.35498
      H   10    0.10889      0.00000     0.38997    0.00114     0.39111
      H   11    0.09612      0.00000     0.40215    0.00173     0.40388
      H   12    0.09613      0.00000     0.40214    0.00173     0.40387
      H   13    0.12180      0.00000     0.37574    0.00247     0.37820
      H   14    0.14028      0.00000     0.35795    0.00177     0.35972
 =======================================================================
   * Total *    1.00000      7.99467    18.92052    0.08481    27.00000

                      1                      2                      3
                      A                      A                      A
 Frequencies --     93.1240               211.2972               259.9977
 Red. masses --      3.4803                 1.9830                 3.1889
 Frc consts  --      0.0178                 0.0522                 0.1270
 IR Inten    --      1.5175                 1.6413                 1.5817

                      4                      5                      6
                      A                      A                      A
 Frequencies --    276.3074               412.5651               444.1692
 Red. masses --      1.6604                 3.4428                 5.1179
 Frc consts  --      0.0747                 0.3453                 0.5949
 IR Inten    --      2.5772                 4.1318                 0.7435

                      7                      8                      9
                      A                      A                      A
 Frequencies --    461.3331               552.4041               580.1786
 Red. masses --      3.4128                 5.3060                 2.1580
 Frc consts  --      0.4279                 0.9540                 0.4280
 IR Inten    --      7.2292                 5.9680                 3.4164

                     10                     11                     12
                      A                      A                      A
 Frequencies --    597.7332               748.8227               770.7759
 Red. masses --      8.1969                 1.4297                 6.4435
 Frc consts  --      1.7255                 0.4723                 2.2554
 IR Inten    --      1.9058                23.1590                11.9412

                     13                     14                     15
                      A                      A                      A
 Frequencies --    833.6030               906.4227               965.9744
 Red. masses --      1.8970                 1.4055                 5.3973
 Frc consts  --      0.7767                 0.6804                 2.9673
 IR Inten    --     38.5611                 0.6349                 0.0813

                     16                     17                     18
                      A                      A                      A
 Frequencies --   1042.6905              1054.2843              1130.5379
 Red. masses --      2.6021                 3.3672                 1.4993
 Frc consts  --      1.6668                 2.2051                 1.1290
 IR Inten    --      0.9232                56.1895                 2.3636

                     19                     20                     21
                      A                      A                      A
 Frequencies --   1157.5127              1184.8014              1199.4254
 Red. masses --      1.2744                 1.4789                 1.3863
 Frc consts  --      1.0060                 1.2231                 1.1751
 IR Inten    --      0.8882                48.6901                12.8396

                     22                     23                     24
                      A                      A                      A
 Frequencies --   1260.1095              1330.7081              1377.2186
 Red. masses --      3.2332                 6.6148                 3.0302
 Frc consts  --      3.0248                 6.9013                 3.3864
 IR Inten    --    174.1848                15.2756                 1.2894

                     25                     26                     27
                      A                      A                      A
 Frequencies --   1435.5884              1466.8209              1471.3368
 Red. masses --      1.5238                 1.8780                 1.0454
 Frc consts  --      1.8503                 2.3807                 1.3334
 IR Inten    --     63.3049                44.6527                 8.6416

                     28                     29                     30
                      A                      A                      A
 Frequencies --   1478.5412              1569.2100              1608.8736
 Red. masses --      1.0495                 7.1250                 7.0427
 Frc consts  --      1.3517                10.3370                10.7407
 IR Inten    --     18.9752                47.8517                79.0104

                     31                     32                     33
                      A                      A                      A
 Frequencies --   3009.9994              3076.9449              3150.6213
 Red. masses --      1.0345                 1.1062                 1.0997
 Frc consts  --      5.5221                 6.1703                 6.4318
 IR Inten    --     48.1437                33.6295                17.9170

                     34                     35                     36
                      A                      A                      A
 Frequencies --   3158.7565              3171.5741              3217.7020
 Red. masses --      1.0870                 1.0884                 1.0911
 Frc consts  --      6.3899                 6.4503                 6.6557
 IR Inten    --      1.2497                 0.4270                 4.7332

 - Thermochemistry -
 -------------------
 Temperature   298.150 Kelvin.  Pressure   1.00000 Atm.
 Atom     1 has atomic number  6 and mass  12.00000

 Molecular mass:   106.04186 amu.
 Principal axes and moments of inertia in atomic units:
                           1         2         3
     Eigenvalues --   348.541321090.026341426.91250
           X            0.99994  -0.01081  -0.00003
           Y            0.01081   0.99994  -0.00001
           Z            0.00003   0.00001   1.00000
 This molecule is an asymmetric top.
 Rotational symmetry number  1.
 Rotational temperatures (Kelvin)      0.24850     0.07946     0.06070
 Rotational constants (GHZ):           5.17798     1.65569     1.26479
 Zero-point vibrational energy     279136.4 (Joules/Mol)
                                   66.71521 (Kcal/Mol)
 Warning -- explicit consideration of  10 degrees of freedom as
           vibrations may cause significant error
 Vibrational temperatures:    133.98   304.01   374.08   397.54   593.59
          (Kelvin)            639.06   663.76   794.79   834.75   860.00
                             1077.39  1108.97  1199.37  1304.14  1389.82
                             1500.20  1516.88  1626.59  1665.40  1704.66
                             1725.71  1813.02  1914.59  1981.51  2065.49
                             2110.43  2116.93  2127.29  2257.74  2314.81
                             4330.72  4427.04  4533.04  4544.75  4563.19
                             4629.56

 Zero-point correction=                           0.106317 (Hartree/Particle)
 Thermal correction to Energy=                    0.113250
 Thermal correction to Enthalpy=                  0.114194
 Thermal correction to Gibbs Free Energy=         0.074246
 Sum of electronic and zero-point Energies=           -345.320146
 Sum of electronic and thermal Energies=              -345.313214
 Sum of electronic and thermal Enthalpies=            -345.312270
 Sum of electronic and thermal Free Energies=         -345.352218

                     E (Thermal)             CV                S
                      KCal/Mol        Cal/Mol-Kelvin    Cal/Mol-Kelvin
 Total                   71.065             25.975             84.078
 Electronic               0.000              0.000              2.183
 Translational            0.889              2.981             39.893
 Rotational               0.889              2.981             27.785
 Vibrational             69.288             20.014             14.217
 Vibration     1          0.602              1.954              3.593
 Vibration     2          0.643              1.824              2.032
 Vibration     3          0.668              1.746              1.662
 Vibration     4          0.678              1.717              1.556
 Vibration     5          0.776              1.443              0.918
 Vibration     6          0.804              1.374              0.814
 Vibration     7          0.819              1.336              0.762
 Vibration     8          0.908              1.134              0.539
 Vibration     9          0.937              1.074              0.485
 Vibration    10          0.956              1.037              0.454

                           ! Non-Optimized Parameters !
 Normal termination of Gaussian 16 at Sat Jun 27 00:24:12 2020.
