 Gaussian 16, Revision A.03,
 Gaussian 16:  ES64L-G16RevA.03 25-Dec-2016

 ----------------------------------------------------------------------
 #p opt=(maxcycles=777) freq ub3lyp/aug-cc-pVDZ pop=(Bonding,AllOrbital
 s,mk,no,nboread)
 ----------------------------------------------------------------------

 -----------------------------
 t-4-MeOPh+_UB3LYP-aug-cc-pVDZ
 -----------------------------
 Symbolic Z-matrix:
 Charge =  1 Multiplicity = 3

 SCF Done:  E(UB3LYP) =  -345.828971392     A.U. after   19 cycles
 SCF Done:  E(UB3LYP) =  -345.828979891     A.U. after   13 cycles
 SCF Done:  E(UB3LYP) =  -345.828982349     A.U. after   13 cycles
 SCF Done:  E(UB3LYP) =  -345.828982798     A.U. after   10 cycles
 SCF Done:  E(UB3LYP) =  -345.828982987     A.U. after    9 cycles
 Optimization completed.
    -- Stationary point found.
 Normal termination of Gaussian 16 at Sat Jun 27 00:36:08 2020.

 ----------------------------------------------------------------------
 #P Geom=AllCheck Guess=TCheck SCRF=Check GenChk UB3LYP/Aug-CC-pVDZ Fre
 q
 ----------------------------------------------------------------------

 Structure from the checkpoint file:  "t-4-MeOPh+_UB3LYP-aug-cc-pVDZ-Opt.chk"
 -----------------------------
 t-4-MeOPh+_UB3LYP-aug-cc-pVDZ
 -----------------------------
 Charge =  1 Multiplicity = 3

                         Standard orientation:
 ---------------------------------------------------------------------
 Center     Atomic      Atomic             Coordinates (Angstroms)
 Number     Number       Type             X           Y           Z
 ---------------------------------------------------------------------
      1          6           0       -0.606582   -1.311218   -0.000049
      2          6           0       -1.948013   -0.990309   -0.000139
      3          6           0       -2.253463    0.374435    0.000055
      4          6           0       -1.345479    1.446664    0.000069
      5          6           0       -0.001813    1.131722   -0.000035
      6          6           0        0.379252   -0.254586    0.000130
      7          1           0       -0.252302   -2.342291   -0.000079
      8          1           0       -2.722597   -1.757219   -0.000348
      9          1           0       -1.687751    2.481835    0.000124
     10          1           0        0.751691    1.916464   -0.000331
     11          8           0        1.617293   -0.675104    0.000307
     12          6           0        2.756768    0.238731   -0.000180
     13          1           0        3.630290   -0.415045    0.000157
     14          1           0        2.729191    0.852739    0.907258
     15          1           0        2.729108    0.851717   -0.908337
 ---------------------------------------------------------------------

 SCF Done:  E(UB3LYP) =  -345.828982987     A.U. after    1 cycles

 Mulliken charges and spin densities:
               1          2
     1  C    0.962447   0.291098
     2  C    0.868344  -0.204668
     3  C   -0.783229   1.418025
     4  C    0.743124  -0.099174
     5  C    1.283560   0.220223
     6  C    0.865679   0.111300
     7  H   -0.764370  -0.003775
     8  H   -0.508679   0.011298
     9  H   -0.532844   0.008954
    10  H   -1.045166   0.001372
    11  O   -0.546286   0.237679
    12  C    1.196251  -0.015879
    13  H   -0.448716  -0.000139
    14  H   -0.145116   0.011839
    15  H   -0.144999   0.011847
 Sum of Mulliken charges =   1.00000   2.00000

 Dipole moment (field-independent basis, Debye):
    X=              0.8941    Y=              0.9629    Z=             -0.0008  Tot=              1.3139
 Quadrupole moment (field-independent basis, Debye-Ang):
   XX=            -21.6784   YY=            -32.5658   ZZ=            -45.7946
   XY=              3.3239   XZ=             -0.0010   YZ=              0.0006

  Exact polarizability: 119.612  -0.929  82.362  -0.000   0.001  47.461
 Approx polarizability: 190.300 -11.463 133.642   0.001   0.001  72.492

 ESP charges:
               1
     1  C   -0.253795
     2  C   -0.016157
     3  C    0.079504
     4  C   -0.000793
     5  C   -0.260350
     6  C    0.577064
     7  H    0.205379
     8  H    0.189894
     9  H    0.184294
    10  H    0.183943
    11  O   -0.218454
    12  C   -0.110409
    13  H    0.174337
    14  H    0.132773
    15  H    0.132770
 Sum of ESP charges =   1.00000

 Summary of Natural Population Analysis:

                                       Natural Population
                Natural  -----------------------------------------------
    Atom  No    Charge         Core      Valence    Rydberg      Total
 -----------------------------------------------------------------------
      C    1    0.02729      0.99947     1.96388    0.00936     2.97271
      C    2   -0.19753      0.99944     2.18916    0.00893     3.19753
      C    3    0.82578      0.99894     1.16792    0.00736     2.17422
      C    4   -0.14882      0.99945     2.14035    0.00902     3.14882
      C    5   -0.03650      0.99946     2.02931    0.00774     3.03650
      C    6    0.31048      0.99945     1.67844    0.01163     2.68952
      H    7    0.13973      0.00000     0.35758    0.00269     0.36027
      H    8    0.15320      0.00000     0.34481    0.00199     0.34680
      H    9    0.15091      0.00000     0.34716    0.00192     0.34909
      H   10    0.13566      0.00000     0.36204    0.00229     0.36434
      O   11   -0.08362      0.99984     3.07059    0.01320     4.08362
      C   12   -0.14287      0.99966     2.13723    0.00598     3.14287
      H   13    0.12679      0.00000     0.37187    0.00135     0.37321
      H   14    0.11975      0.00000     0.37906    0.00120     0.38025
      H   15    0.11976      0.00000     0.37904    0.00120     0.38024
 =======================================================================
   * Total *    1.50000      7.99570    18.91844    0.08585    27.00000

                      1                      2                      3
                      A                      A                      A
 Frequencies --    123.7245               168.0013               241.2660
 Red. masses --      3.3925                 1.0740                 4.6429
 Frc consts  --      0.0306                 0.0179                 0.1592
 IR Inten    --      1.4309                 0.8403                 4.8572

                      4                      5                      6
                      A                      A                      A
 Frequencies --    244.5958               365.9414               440.1047
 Red. masses --      3.1964                 2.8675                 5.0730
 Frc consts  --      0.1127                 0.2262                 0.5789
 IR Inten    --      3.5973                 0.5483                 4.0026

                      7                      8                      9
                      A                      A                      A
 Frequencies --    491.0514               544.3837               564.2248
 Red. masses --      2.8100                 6.0158                 6.5360
 Frc consts  --      0.3992                 1.0504                 1.2259
 IR Inten    --      7.9716                 2.1108                 3.4241

                     10                     11                     12
                      A                      A                      A
 Frequencies --    711.0369               762.0139               762.5792
 Red. masses --      3.1432                 1.2548                 5.0956
 Frc consts  --      0.9363                 0.4293                 1.7459
 IR Inten    --      8.4038                 0.3249                 4.0637

                     13                     14                     15
                      A                      A                      A
 Frequencies --    833.9660               955.0133               963.6454
 Red. masses --      1.7845                 5.7963                 7.6796
 Frc consts  --      0.7312                 3.1147                 4.2017
 IR Inten    --     62.6198                27.6653                22.4218

                     16                     17                     18
                      A                      A                      A
 Frequencies --    980.4324               983.9191               993.2300
 Red. masses --      1.3229                 1.3498                 2.7515
 Frc consts  --      0.7492                 0.7699                 1.5993
 IR Inten    --      0.0586                 0.2636                15.5961

                     19                     20                     21
                      A                      A                      A
 Frequencies --   1121.3026              1135.1051              1175.4238
 Red. masses --      1.2501                 1.2652                 1.1395
 Frc consts  --      0.9261                 0.9605                 0.9276
 IR Inten    --      5.6789                 0.7424                 5.6325

                     22                     23                     24
                      A                      A                      A
 Frequencies --   1182.1114              1277.9997              1347.7902
 Red. masses --      1.3203                 1.4627                 3.2110
 Frc consts  --      1.0870                 1.4075                 3.4367
 IR Inten    --      2.6914                 0.6636                36.3350

                     25                     26                     27
                      A                      A                      A
 Frequencies --   1366.1061              1417.8018              1427.6117
 Red. masses --      3.3561                 1.8728                 2.1308
 Frc consts  --      3.6902                 2.2181                 2.5587
 IR Inten    --     16.0461                99.3060                36.1349

                     28                     29                     30
                      A                      A                      A
 Frequencies --   1449.2937              1470.5488              1473.1670
 Red. masses --      1.3208                 1.0444                 2.6484
 Frc consts  --      1.6346                 1.3307                 3.3865
 IR Inten    --     18.7894                18.0565                 5.4914

                     31                     32                     33
                      A                      A                      A
 Frequencies --   1497.3527              1594.4654              3061.5035
 Red. masses --      2.3849                 5.3820                 1.0301
 Frc consts  --      3.1504                 8.0616                 5.6883
 IR Inten    --    157.1153                 2.3229                 1.2504

                     34                     35                     36
                      A                      A                      A
 Frequencies --   3160.4687              3200.0461              3201.0422
 Red. masses --      1.1096                 1.0888                 1.0904
 Frc consts  --      6.5302                 6.5694                 6.5830
 IR Inten    --      0.4683                 5.3552                 9.0528

                     37                     38                     39
                      A                      A                      A
 Frequencies --   3207.7029              3212.9189              3226.1628
 Red. masses --      1.1064                 1.0981                 1.0948
 Frc consts  --      6.7076                 6.6788                 6.7134
 IR Inten    --      1.2114                14.1297                 6.9243

 - Thermochemistry -
 -------------------
 Temperature   298.150 Kelvin.  Pressure   1.00000 Atm.
 Atom     1 has atomic number  6 and mass  12.00000

 Molecular mass:   107.04969 amu.
 Principal axes and moments of inertia in atomic units:
                           1         2         3
     Eigenvalues --   374.884211100.683601463.70406
           X            0.99959   0.02853  -0.00001
           Y           -0.02853   0.99959   0.00000
           Z            0.00001  -0.00000   1.00000
 This molecule is an asymmetric top.
 Rotational symmetry number  1.
 Rotational temperatures (Kelvin)      0.23104     0.07869     0.05917
 Rotational constants (GHZ):           4.81413     1.63965     1.23300
 Zero-point vibrational energy     313033.1 (Joules/Mol)
                                   74.81672 (Kcal/Mol)
 Warning -- explicit consideration of   9 degrees of freedom as
           vibrations may cause significant error
 Vibrational temperatures:    178.01   241.72   347.13   351.92   526.51
          (Kelvin)            633.21   706.51   783.25   811.79  1023.02
                             1096.37  1097.18  1199.89  1374.05  1386.47
                             1410.62  1415.64  1429.04  1613.30  1633.16
                             1691.17  1700.79  1838.76  1939.17  1965.52
                             2039.90  2054.01  2085.21  2115.79  2119.56
                             2154.36  2294.08  4404.82  4547.21  4604.15
                             4605.59  4615.17  4622.67  4641.73

 Zero-point correction=                           0.119228 (Hartree/Particle)
 Thermal correction to Energy=                    0.126288
 Thermal correction to Enthalpy=                  0.127232
 Thermal correction to Gibbs Free Energy=         0.087048
 Sum of electronic and zero-point Energies=           -345.709755
 Sum of electronic and thermal Energies=              -345.702695
 Sum of electronic and thermal Enthalpies=            -345.701751
 Sum of electronic and thermal Free Energies=         -345.741935

                     E (Thermal)             CV                S
                      KCal/Mol        Cal/Mol-Kelvin    Cal/Mol-Kelvin
 Total                   79.247             26.575             84.575
 Electronic               0.000              0.000              2.183
 Translational            0.889              2.981             39.921
 Rotational               0.889              2.981             27.893
 Vibrational             77.469             20.613             14.578
 Vibration     1          0.610              1.929              3.041
 Vibration     2          0.625              1.882              2.458
 Vibration     3          0.658              1.777              1.794
 Vibration     4          0.660              1.772              1.769
 Vibration     5          0.739              1.542              1.097
 Vibration     6          0.800              1.383              0.826
 Vibration     7          0.847              1.270              0.681
 Vibration     8          0.900              1.152              0.556
 Vibration     9          0.920              1.109              0.515

 Optimization completed.
    -- Stationary point found.
 Normal termination of Gaussian 16 at Sat Jun 27 00:53:02 2020.
