 Gaussian 16, Revision A.03,
 Gaussian 16:  ES64L-G16RevA.03 25-Dec-2016

 ----------------------------------------------------------------------
 #p opt=(maxcycles=777) freq ub3lyp/aug-cc-pVDZ pop=(Bonding,AllOrbital
 s,mk,no,nboread)
 ----------------------------------------------------------------------

 ------------------------------
 t-4-NO2C6H3_UB3LYP-aug-cc-pVDZ
 ------------------------------
 Symbolic Z-matrix:
 Charge =  0 Multiplicity = 3

 SCF Done:  E(UB3LYP) =  -435.395555886     A.U. after   25 cycles
 SCF Done:  E(UB3LYP) =  -435.423469180     A.U. after   18 cycles
 SCF Done:  E(UB3LYP) =  -435.425613452     A.U. after   17 cycles
 SCF Done:  E(UB3LYP) =  -435.425727175     A.U. after   15 cycles
 SCF Done:  E(UB3LYP) =  -435.421569587     A.U. after   16 cycles
 SCF Done:  E(UB3LYP) =  -435.425775541     A.U. after   12 cycles
 SCF Done:  E(UB3LYP) =  -435.425777175     A.U. after   11 cycles
 Optimization completed.
    -- Stationary point found.
 Normal termination of Gaussian 16 at Sat Jun 27 02:04:16 2020.

 ----------------------------------------------------------------------
 #P Geom=AllCheck Guess=TCheck SCRF=Check GenChk UB3LYP/Aug-CC-pVDZ Fre
 q
 ----------------------------------------------------------------------

 Structure from the checkpoint file:  "t-4-NO2C6H3_UB3LYP-aug-cc-pVDZ-Opt.chk"
 ------------------------------
 t-4-NO2C6H3_UB3LYP-aug-cc-pVDZ
 ------------------------------
 Charge =  0 Multiplicity = 3

                         Standard orientation:
 ---------------------------------------------------------------------
 Center     Atomic      Atomic             Coordinates (Angstroms)
 Number     Number       Type             X           Y           Z
 ---------------------------------------------------------------------
      1          6           0        2.593790   -0.153152   -0.000093
      2          6           0        1.836907   -1.332748   -0.000193
      3          6           0        0.459851   -1.298066   -0.000072
      4          6           0       -0.146778   -0.029644    0.000102
      5          7           0       -1.623113    0.044428    0.000145
      6          8           0       -2.246131   -1.013575    0.000215
      7          8           0       -2.136461    1.160058   -0.000417
      8          6           0        0.586412    1.156960    0.000210
      9          6           0        1.989809    1.090305    0.000087
     10          1           0       -0.151740   -2.200180   -0.000147
     11          1           0        0.066302    2.111840    0.000342
     12          1           0        2.588017    2.003545    0.000163
 ---------------------------------------------------------------------

 SCF Done:  E(UB3LYP) =  -435.425777175     A.U. after    1 cycles

 Mulliken charges and spin densities:
               1          2
     1  C   -0.662474   0.981206
     2  C   -0.771138   0.989518
     3  C    1.157765  -0.071374
     4  C    0.982480   0.048439
     5  N    0.680821   0.004641
     6  O   -0.673686  -0.002914
     7  O   -0.672550   0.003182
     8  C    1.066678   0.039466
     9  C    0.811064  -0.050525
    10  H   -0.594738   0.026505
    11  H   -0.768456   0.007859
    12  H   -0.555767   0.023996
 Sum of Mulliken charges =  -0.00000   2.00000

 Dipole moment (field-independent basis, Debye):
    X=              3.1853    Y=              0.7321    Z=              0.0006  Tot=              3.2683
 Quadrupole moment (field-independent basis, Debye-Ang):
   XX=            -59.5533   YY=            -47.8000   ZZ=            -51.6455
   XY=              3.5856   XZ=             -0.0008   YZ=              0.0022

  Exact polarizability: 113.050   1.265  94.732  -0.000   0.000  48.850
 Approx polarizability: 182.395   2.020 187.024  -0.002  -0.004  74.483

 ESP charges:
               1
     1  C   -0.035772
     2  C    0.004384
     3  C   -0.176114
     4  C    0.174773
     5  N    0.550744
     6  O   -0.370215
     7  O   -0.371282
     8  C   -0.200488
     9  C   -0.049669
    10  H    0.172498
    11  H    0.161076
    12  H    0.140065
 Sum of ESP charges =   0.00000

 Summary of Natural Population Analysis:

                                       Natural Population
                Natural  -----------------------------------------------
    Atom  No    Charge         Core      Valence    Rydberg      Total
 -----------------------------------------------------------------------
      C    1    0.54014      0.99879     1.45254    0.00853     2.45986
      C    2    0.52436      0.99877     1.46825    0.00862     2.47564
      C    3   -0.16059      0.99938     2.15195    0.00926     3.16059
      C    4    0.04218      0.99933     1.94621    0.01228     2.95782
      N    5    0.25205      0.99967     2.22272    0.02555     3.24795
      O    6   -0.19155      0.99989     3.17974    0.01192     4.19155
      O    7   -0.18832      0.99989     3.17654    0.01189     4.18832
      C    8   -0.08938      0.99943     2.08137    0.00858     3.08938
      C    9   -0.16862      0.99944     2.16105    0.00813     3.16862
      H   10    0.15696      0.00000     0.34054    0.00250     0.34304
      H   11    0.13838      0.00000     0.35893    0.00269     0.36162
      H   12    0.14440      0.00000     0.35379    0.00182     0.35560
 =======================================================================
   * Total *    1.00000      8.99460    20.89363    0.11177    30.00000

                      1                      2                      3
                      A                      A                      A
 Frequencies --     59.7927               175.6767               254.7581
 Red. masses --      8.9040                 8.0037                 7.4059
 Frc consts  --      0.0188                 0.1455                 0.2832
 IR Inten    --      0.1197                 4.5661                 2.0509

                      4                      5                      6
                      A                      A                      A
 Frequencies --    391.5967               400.3245               439.5804
 Red. masses --     10.3870                 3.1625                 5.8110
 Frc consts  --      0.9385                 0.2986                 0.6616
 IR Inten    --      1.1390                 5.2082                 1.0745

                      7                      8                      9
                      A                      A                      A
 Frequencies --    523.4429               591.0905               598.6071
 Red. masses --      8.4552                 7.8497                 2.8971
 Frc consts  --      1.3649                 1.6159                 0.6116
 IR Inten    --      2.3264                 0.3527                 0.2392

                     10                     11                     12
                      A                      A                      A
 Frequencies --    669.6965               744.0789               780.7193
 Red. masses --      9.3129                 2.8524                 1.6652
 Frc consts  --      2.4609                 0.9305                 0.5980
 IR Inten    --      5.4800                43.9544                 4.1747

                     13                     14                     15
                      A                      A                      A
 Frequencies --    851.2772               879.2591               963.6979
 Red. masses --     12.1408                 1.7445                 1.4066
 Frc consts  --      5.1837                 0.7946                 0.7697
 IR Inten    --     35.2390                19.9460                 0.2825

                     16                     17                     18
                      A                      A                      A
 Frequencies --    975.4108              1039.9255              1098.5003
 Red. masses --      6.2232                 1.8267                 4.5233
 Frc consts  --      3.4885                 1.1639                 3.2160
 IR Inten    --      0.0055                22.0175                22.8160

                     19                     20                     21
                      A                      A                      A
 Frequencies --   1115.6250              1207.0440              1341.6134
 Red. masses --      1.2917                 1.3939                 7.1628
 Frc consts  --      0.9472                 1.1965                 7.5961
 IR Inten    --      9.6230                 3.3994                19.3810

                     22                     23                     24
                      A                      A                      A
 Frequencies --   1371.8380              1379.2593              1426.3662
 Red. masses --      3.9295                12.0572                 2.5671
 Frc consts  --      4.3570                13.5141                 3.0772
 IR Inten    --     16.7142               257.9380                 6.5464

                     25                     26                     27
                      A                      A                      A
 Frequencies --   1555.7983              1592.5129              1634.5074
 Red. masses --      7.3484                10.8609                 9.8703
 Frc consts  --     10.4797                16.2287                15.5365
 IR Inten    --     14.9409               151.7400                87.6005

                     28                     29                     30
                      A                      A                      A
 Frequencies --   3172.8678              3195.7635              3230.4237
 Red. masses --      1.0881                 1.0888                 1.0928
 Frc consts  --      6.4536                 6.5515                 6.7191
 IR Inten    --      0.4638                15.9923                 3.7861

 - Thermochemistry -
 -------------------
 Temperature   298.150 Kelvin.  Pressure   1.00000 Atm.
 Atom     1 has atomic number  6 and mass  12.00000

 Molecular mass:   121.01638 amu.
 Principal axes and moments of inertia in atomic units:
                           1         2         3
     Eigenvalues --   440.669541332.397571773.06707
           X            0.99974   0.02264   0.00000
           Y           -0.02264   0.99974   0.00001
           Z           -0.00000  -0.00001   1.00000
 This molecule is an asymmetric top.
 Rotational symmetry number  1.
 Warning -- assumption of classical behavior for rotation
           may cause significant error
 Rotational temperatures (Kelvin)      0.19655     0.06501     0.04885
 Rotational constants (GHZ):           4.09545     1.35451     1.01786
 Zero-point vibrational energy     201337.8 (Joules/Mol)
                                   48.12089 (Kcal/Mol)
 Warning -- explicit consideration of   9 degrees of freedom as
           vibrations may cause significant error
 Vibrational temperatures:     86.03   252.76   366.54   563.42   575.98
          (Kelvin)            632.46   753.12   850.45   861.26   963.54
                             1070.56  1123.28  1224.80  1265.06  1386.55
                             1403.40  1496.22  1580.50  1605.14  1736.67
                             1930.28  1973.77  1984.45  2052.22  2238.45
                             2291.27  2351.69  4565.05  4597.99  4647.86

 Zero-point correction=                           0.076686 (Hartree/Particle)
 Thermal correction to Energy=                    0.083496
 Thermal correction to Enthalpy=                  0.084440
 Thermal correction to Gibbs Free Energy=         0.043843
 Sum of electronic and zero-point Energies=           -435.349092
 Sum of electronic and thermal Energies=              -435.342282
 Sum of electronic and thermal Enthalpies=            -435.341337
 Sum of electronic and thermal Free Energies=         -435.381934

                     E (Thermal)             CV                S
                      KCal/Mol        Cal/Mol-Kelvin    Cal/Mol-Kelvin
 Total                   52.394             25.130             85.443
 Electronic               0.000              0.000              2.183
 Translational            0.889              2.981             40.287
 Rotational               0.889              2.981             28.434
 Vibrational             50.617             19.169             14.540
 Vibration     1          0.597              1.973              4.464
 Vibration     2          0.628              1.872              2.374
 Vibration     3          0.665              1.755              1.697
 Vibration     4          0.759              1.488              0.994
 Vibration     5          0.766              1.469              0.961
 Vibration     6          0.800              1.384              0.828
 Vibration     7          0.878              1.198              0.602
 Vibration     8          0.949              1.051              0.465
 Vibration     9          0.957              1.035              0.452

 Optimization completed.
    -- Stationary point found.
 Normal termination of Gaussian 16 at Sat Jun 27 02:15:37 2020.
