 Gaussian 16, Revision A.03,
 Gaussian 16:  ES64L-G16RevA.03 25-Dec-2016

 ----------------------------------------------------------------------
 #p opt=(maxcycles=777) freq ub3lyp/aug-cc-pVDZ pop=(Bonding,AllOrbital
 s,mk,no,nboread)
 ----------------------------------------------------------------------

 -------------------------
 t-C6H4_UB3LYP-aug-cc-pVDZ
 -------------------------
 Symbolic Z-matrix:
 Charge =  0 Multiplicity = 3

 SCF Done:  E(UB3LYP) =  -230.859418043     A.U. after   19 cycles
 SCF Done:  E(UB3LYP) =  -230.887074318     A.U. after   14 cycles
 SCF Done:  E(UB3LYP) =  -230.889205000     A.U. after   13 cycles
 SCF Done:  E(UB3LYP) =  -230.889349187     A.U. after   11 cycles
 SCF Done:  E(UB3LYP) =  -230.889365250     A.U. after   10 cycles
 SCF Done:  E(UB3LYP) =  -230.889367424     A.U. after   10 cycles
 Optimization completed.
    -- Stationary point found.
 Normal termination of Gaussian 16 at Sat Jun 27 03:13:00 2020.

 ----------------------------------------------------------------------
 #P Geom=AllCheck Guess=TCheck SCRF=Check GenChk UB3LYP/Aug-CC-pVDZ Fre
 q
 ----------------------------------------------------------------------

 Structure from the checkpoint file:  "t-C6H4_UB3LYP-aug-cc-pVDZ-Opt.chk"
 -------------------------
 t-C6H4_UB3LYP-aug-cc-pVDZ
 -------------------------
 Charge =  0 Multiplicity = 3

                         Standard orientation:
 ---------------------------------------------------------------------
 Center     Atomic      Atomic             Coordinates (Angstroms)
 Number     Number       Type             X           Y           Z
 ---------------------------------------------------------------------
      1          6           0        0.700685   -1.301452    0.000020
      2          6           0       -0.700681   -1.301454    0.000003
      3          6           0       -1.411584   -0.116695   -0.000036
      4          6           0       -0.698179    1.098372    0.000030
      5          6           0        0.698175    1.098373   -0.000028
      6          6           0        1.411585   -0.116692   -0.000004
      7          1           0       -2.504142   -0.123108    0.000015
      8          1           0       -1.245827    2.041743    0.000075
      9          1           0        1.245820    2.041744   -0.000006
     10          1           0        2.504143   -0.123093    0.000013
 ---------------------------------------------------------------------

 SCF Done:  E(UB3LYP) =  -230.889367424     A.U. after    1 cycles

 Mulliken charges and spin densities:
               1          2
     1  C   -0.629351   0.978231
     2  C   -0.629354   0.978231
     3  C    0.976974  -0.050028
     4  C    0.918465   0.037998
     5  C    0.918476   0.038000
     6  C    0.976974  -0.050029
     7  H   -0.568786   0.025089
     8  H   -0.697305   0.008709
     9  H   -0.697310   0.008709
    10  H   -0.568783   0.025089
 Sum of Mulliken charges =  -0.00000   2.00000

 Dipole moment (field-independent basis, Debye):
    X=             -0.0000    Y=              1.6579    Z=              0.0001  Tot=              1.6579
 Quadrupole moment (field-independent basis, Debye-Ang):
   XX=            -30.4475   YY=            -35.3864   ZZ=            -38.4410
   XY=              0.0000   XZ=             -0.0001   YZ=              0.0001

  Exact polarizability:  80.658   0.000  76.314  -0.000  -0.000  44.284
 Approx polarizability: 135.496  -0.000 130.807   0.000  -0.000  64.746

 ESP charges:
               1
     1  C   -0.058566
     2  C   -0.062745
     3  C   -0.034525
     4  C   -0.121534
     5  C   -0.110666
     6  C   -0.043389
     7  H    0.106972
     8  H    0.108802
     9  H    0.107366
    10  H    0.108286
 Sum of ESP charges =  -0.00000

 Summary of Natural Population Analysis:

                                       Natural Population
                Natural  -----------------------------------------------
    Atom  No    Charge         Core      Valence    Rydberg      Total
 -----------------------------------------------------------------------
      C    1    0.51626      0.99879     1.47649    0.00847     2.48374
      C    2    0.51626      0.99879     1.47649    0.00847     2.48374
      C    3   -0.17235      0.99944     2.16482    0.00809     3.17235
      C    4   -0.10510      0.99948     2.09791    0.00771     3.10510
      C    5   -0.10510      0.99948     2.09791    0.00771     3.10510
      C    6   -0.17235      0.99944     2.16482    0.00809     3.17235
      H    7    0.13981      0.00000     0.35835    0.00184     0.36019
      H    8    0.12139      0.00000     0.37657    0.00204     0.37861
      H    9    0.12139      0.00000     0.37657    0.00204     0.37861
      H   10    0.13981      0.00000     0.35835    0.00184     0.36019
 =======================================================================
   * Total *    1.00000      5.99542    12.94829    0.05630    19.00000

                      1                      2                      3
                      A                      A                      A
 Frequencies --    396.6219               409.8714               581.7643
 Red. masses --      3.0605                 4.9405                 7.0590
 Frc consts  --      0.2837                 0.4890                 1.4076
 IR Inten    --      6.6988                 0.0000                 0.3088

                      4                      5                      6
                      A                      A                      A
 Frequencies --    595.0971               597.8444               720.0151
 Red. masses --      7.6357                 2.4759                 1.1541
 Frc consts  --      1.5932                 0.5214                 0.3525
 IR Inten    --      0.1800                 0.0000                81.7619

                      7                      8                      9
                      A                      A                      A
 Frequencies --    790.4360               919.5849               949.5960
 Red. masses --      1.5574                 1.3817                 7.5658
 Frc consts  --      0.5733                 0.6884                 4.0196
 IR Inten    --      0.0000                 1.6523                 0.1752

                     10                     11                     12
                      A                      A                      A
 Frequencies --    974.6249              1015.7427              1045.0807
 Red. masses --      1.3547                 5.1750                 1.7372
 Frc consts  --      0.7582                 3.1458                 1.1179
 IR Inten    --      0.0000                 0.2231                 9.9573

                     13                     14                     15
                      A                      A                      A
 Frequencies --   1101.3483              1162.1680              1209.7551
 Red. masses --      1.6259                 1.1031                 1.3906
 Frc consts  --      1.1619                 0.8778                 1.1991
 IR Inten    --      2.6235                 0.0380                 1.7908

                     16                     17                     18
                      A                      A                      A
 Frequencies --   1319.8992              1422.4865              1426.8918
 Red. masses --      7.5097                 2.4568                 1.9155
 Frc consts  --      7.7082                 2.9290                 2.2978
 IR Inten    --      2.4595                 4.6066                 1.9409

                     19                     20                     21
                      A                      A                      A
 Frequencies --   1553.3487              1611.9095              3158.2227
 Red. masses --      6.2334                 6.7333                 1.0848
 Frc consts  --      8.8617                10.3076                 6.3749
 IR Inten    --      0.1231                 0.9879                 0.0132

                     22                     23                     24
                      A                      A                      A
 Frequencies --   3161.0178              3179.0326              3193.9154
 Red. masses --      1.0865                 1.0904                 1.0974
 Frc consts  --      6.3963                 6.4925                 6.5959
 IR Inten    --      2.4713                 4.8468                10.1287

 - Thermochemistry -
 -------------------
 Temperature   298.150 Kelvin.  Pressure   1.00000 Atm.
 Atom     1 has atomic number  6 and mass  12.00000

 Molecular mass:    76.03130 amu.
 Principal axes and moments of inertia in atomic units:
                           1         2         3
     Eigenvalues --   279.16517 310.93814 590.10331
           X            1.00000   0.00000  -0.00000
           Y           -0.00000   1.00000   0.00000
           Z            0.00000  -0.00000   1.00000
 This molecule is an asymmetric top.
 Rotational symmetry number  1.
 Rotational temperatures (Kelvin)      0.31026     0.27856     0.14678
 Rotational constants (GHZ):           6.46478     5.80418     3.05835
 Zero-point vibrational energy     194370.9 (Joules/Mol)
                                   46.45576 (Kcal/Mol)
 Warning -- explicit consideration of   5 degrees of freedom as
           vibrations may cause significant error
 Vibrational temperatures:    570.65   589.71   837.03   856.21   860.16
          (Kelvin)           1035.94  1137.26  1323.08  1366.26  1402.27
                             1461.43  1503.64  1584.59  1672.10  1740.57
                             1899.04  2046.64  2052.98  2234.92  2319.18
                             4543.98  4548.00  4573.92  4595.33

 Zero-point correction=                           0.074032 (Hartree/Particle)
 Thermal correction to Energy=                    0.078449
 Thermal correction to Enthalpy=                  0.079394
 Thermal correction to Gibbs Free Energy=         0.045632
 Sum of electronic and zero-point Energies=           -230.815335
 Sum of electronic and thermal Energies=              -230.810918
 Sum of electronic and thermal Enthalpies=            -230.809974
 Sum of electronic and thermal Free Energies=         -230.843735

                     E (Thermal)             CV                S
                      KCal/Mol        Cal/Mol-Kelvin    Cal/Mol-Kelvin
 Total                   49.228             16.656             71.057
 Electronic               0.000              0.000              2.183
 Translational            0.889              2.981             38.901
 Rotational               0.889              2.981             25.441
 Vibrational             47.450             10.694              4.532
 Vibration     1          0.763              1.477              0.975
 Vibration     2          0.774              1.449              0.927
 Vibration     3          0.939              1.071              0.482
 Vibration     4          0.953              1.042              0.458
 Vibration     5          0.956              1.036              0.453

 Optimization completed.
    -- Stationary point found.
 Normal termination of Gaussian 16 at Sat Jun 27 03:17:29 2020.
