 Gaussian 16, Revision A.03,
 Gaussian 16:  ES64L-G16RevA.03 25-Dec-2016

 ----------------------------------------------------------------------
 #p opt=(maxcycles=777) freq ub3lyp/aug-cc-pVDZ pop=(Bonding,AllOrbital
 s,mk,no,nboread)
 ----------------------------------------------------------------------

 ------------------------
 t-Ph+_UB3LYP-aug-cc-pVDZ
 ------------------------
 Symbolic Z-matrix:
 Charge =  1 Multiplicity = 3

 SCF Done:  E(UB3LYP) =  -231.251852288     A.U. after   19 cycles
 Optimization completed.
    -- Stationary point found.
 Normal termination of Gaussian 16 at Sat Jun 27 03:18:36 2020.

 ----------------------------------------------------------------------
 #P Geom=AllCheck Guess=TCheck SCRF=Check GenChk UB3LYP/Aug-CC-pVDZ Fre
 q
 ----------------------------------------------------------------------

 Structure from the checkpoint file:  "t-Ph+_UB3LYP-aug-cc-pVDZ-Opt.chk"
 ------------------------
 t-Ph+_UB3LYP-aug-cc-pVDZ
 ------------------------
 Charge =  1 Multiplicity = 3

                         Standard orientation:
 ---------------------------------------------------------------------
 Center     Atomic      Atomic             Coordinates (Angstroms)
 Number     Number       Type             X           Y           Z
 ---------------------------------------------------------------------
      1          6           0        1.258320    0.618089   -0.000300
      2          6           0        1.268469   -0.761308   -0.000375
      3          6           0       -0.002440   -1.381536    0.000178
      4          6           0       -1.270994   -0.757997    0.000437
      5          6           0       -1.256321    0.621331   -0.000252
      6          6           0        0.002444    1.311370    0.000177
      7          1           0        2.188320    1.187741    0.001155
      8          1           0        2.189230   -1.345764    0.000166
      9          1           0       -2.193549   -1.339433   -0.000176
     10          1           0       -2.184592    1.194158   -0.001499
     11          1           0        0.003726    2.403605    0.001169
 ---------------------------------------------------------------------

 SCF Done:  E(UB3LYP) =  -231.251852288     A.U. after    1 cycles

 Mulliken charges and spin densities:
               1          2
     1  C    1.127982   0.000200
     2  C    0.737400  -0.003663
     3  C   -0.576563   1.430105
     4  C    0.739518  -0.008971
     5  C    1.126738   0.004827
     6  C    0.683419   0.585842
     7  H   -0.622819   0.000947
     8  H   -0.489435   0.005594
     9  H   -0.489424   0.005837
    10  H   -0.622702   0.000828
    11  H   -0.614114  -0.021546
 Sum of Mulliken charges =   1.00000   2.00000

 Dipole moment (field-independent basis, Debye):
    X=              0.0018    Y=              0.9153    Z=              0.0006  Tot=              0.9153
 Quadrupole moment (field-independent basis, Debye-Ang):
   XX=            -18.9166   YY=            -22.0744   ZZ=            -34.4976
   XY=             -0.0126   XZ=              0.0062   YZ=              0.0019

  Exact polarizability:  70.812  -0.019  72.275  -0.002  -0.002  34.946
 Approx polarizability: 110.343  -0.092 135.936  -0.010  -0.011  53.272

 ESP charges:
               1
     1  C   -0.149174
     2  C    0.024191
     3  C    0.140098
     4  C    0.031397
     5  C   -0.163064
     6  C    0.226492
     7  H    0.192799
     8  H    0.180873
     9  H    0.179041
    10  H    0.197859
    11  H    0.139487
 Sum of ESP charges =   1.00000

 Summary of Natural Population Analysis:

                                       Natural Population
                Natural  -----------------------------------------------
    Atom  No    Charge         Core      Valence    Rydberg      Total
 -----------------------------------------------------------------------
      C    1   -0.05956      0.99951     2.05221    0.00783     3.05956
      C    2   -0.11218      0.99945     2.10396    0.00877     3.11218
      C    3    0.88088      0.99901     1.11318    0.00693     2.11912
      C    4   -0.11518      0.99945     2.10695    0.00878     3.11518
      C    5   -0.05691      0.99951     2.04957    0.00783     3.05691
      C    6    0.24243      0.99955     1.75074    0.00729     2.75757
      H    7    0.14361      0.00000     0.35432    0.00207     0.35639
      H    8    0.15299      0.00000     0.34495    0.00206     0.34701
      H    9    0.15311      0.00000     0.34483    0.00206     0.34689
      H   10    0.14355      0.00000     0.35438    0.00207     0.35645
      H   11    0.12727      0.00000     0.37031    0.00242     0.37273
 =======================================================================
   * Total *    1.50000      5.99648    12.94541    0.05811    19.00000

                      1                      2                      3
                      A                      A                      A
 Frequencies --    325.4489               330.9038               429.7657
 Red. masses --      2.6106                 2.8223                 7.7328
 Frc consts  --      0.1629                 0.1821                 0.8415
 IR Inten    --      0.0158                 0.0000                 0.0144

                      4                      5                      6
                      A                      A                      A
 Frequencies --    590.7254               592.9988               737.7209
 Red. masses --      1.9880                 7.0383                 1.5454
 Frc consts  --      0.4087                 1.4582                 0.4955
 IR Inten    --     19.7904                 0.6297                57.7108

                      7                      8                      9
                      A                      A                      A
 Frequencies --    755.9929               929.4213               940.2215
 Red. masses --      1.2365                 3.1395                 1.4417
 Frc consts  --      0.4164                 1.5978                 0.7509
 IR Inten    --      0.0019                11.4393                 3.7080

                     10                     11                     12
                      A                      A                      A
 Frequencies --    974.7015               990.4537               994.9257
 Red. masses --      4.8230                 4.6246                 1.3857
 Frc consts  --      2.6997                 2.6730                 0.8082
 IR Inten    --      2.0764                 0.3830                 0.0005

                     13                     14                     15
                      A                      A                      A
 Frequencies --   1009.8663              1036.9917              1131.2435
 Red. masses --      1.4022                 1.9699                 1.4303
 Frc consts  --      0.8425                 1.2481                 1.0784
 IR Inten    --      0.7586                 7.4593                 0.1442

                     16                     17                     18
                      A                      A                      A
 Frequencies --   1183.6488              1248.8646              1350.6197
 Red. masses --      1.1270                 1.6684                 1.4507
 Frc consts  --      0.9303                 1.5331                 1.5592
 IR Inten    --      2.4772                 0.7785                 0.0883

                     19                     20                     21
                      A                      A                      A
 Frequencies --   1402.0858              1403.0078              1479.3096
 Red. masses --      2.1469                 2.6918                 2.4563
 Frc consts  --      2.4867                 3.1219                 3.1670
 IR Inten    --     79.6584                68.2018                50.1340

                     22                     23                     24
                      A                      A                      A
 Frequencies --   1609.8235              3195.0177              3199.1165
 Red. masses --      5.6612                 1.0900                 1.0878
 Frc consts  --      8.6440                 6.5559                 6.5591
 IR Inten    --      0.9184                 0.1673                 3.9960

                     25                     26                     27
                      A                      A                      A
 Frequencies --   3203.2469              3211.1464              3214.2352
 Red. masses --      1.0920                 1.0979                 1.1007
 Frc consts  --      6.6017                 6.6700                 6.6999
 IR Inten    --     18.8614                33.3239                 0.5617

 - Thermochemistry -
 -------------------
 Temperature   298.150 Kelvin.  Pressure   1.00000 Atm.
 Atom     1 has atomic number  6 and mass  12.00000

 Molecular mass:    77.03913 amu.
 Principal axes and moments of inertia in atomic units:
                           1         2         3
     Eigenvalues --   281.63308 342.64206 624.27507
           X            1.00000  -0.00050   0.00007
           Y            0.00050   1.00000   0.00003
           Z           -0.00007  -0.00003   1.00000
 This molecule is an asymmetric top.
 Rotational symmetry number  1.
 Rotational temperatures (Kelvin)      0.30754     0.25278     0.13874
 Rotational constants (GHZ):           6.40813     5.26713     2.89094
 Zero-point vibrational energy     224129.4 (Joules/Mol)
                                   53.56820 (Kcal/Mol)
 Warning -- explicit consideration of   5 degrees of freedom as
           vibrations may cause significant error
 Vibrational temperatures:    468.25   476.10   618.34   849.92   853.19
          (Kelvin)           1061.42  1087.71  1337.23  1352.77  1402.38
                             1425.04  1431.48  1452.97  1492.00  1627.61
                             1703.01  1796.84  1943.24  2017.29  2018.62
                             2128.40  2316.18  4596.92  4602.82  4608.76
                             4620.12  4624.57

 Zero-point correction=                           0.085366 (Hartree/Particle)
 Thermal correction to Energy=                    0.090137
 Thermal correction to Enthalpy=                  0.091081
 Thermal correction to Gibbs Free Energy=         0.056642
 Sum of electronic and zero-point Energies=           -231.166486
 Sum of electronic and thermal Energies=              -231.161716
 Sum of electronic and thermal Enthalpies=            -231.160772
 Sum of electronic and thermal Free Energies=         -231.195210

                     E (Thermal)             CV                S
                      KCal/Mol        Cal/Mol-Kelvin    Cal/Mol-Kelvin
 Total                   56.562             18.090             72.482
 Electronic               0.000              0.000              2.183
 Translational            0.889              2.981             38.940
 Rotational               0.889              2.981             25.602
 Vibrational             54.784             12.128              5.757
 Vibration     1          0.710              1.625              1.283
 Vibration     2          0.713              1.614              1.256
 Vibration     3          0.791              1.405              0.859
 Vibration     4          0.948              1.052              0.466
 Vibration     5          0.951              1.047              0.462

                           ! Non-Optimized Parameters !
 Normal termination of Gaussian 16 at Sat Jun 27 03:24:19 2020.
