 Gaussian 16, Revision A.03,
 Gaussian 16:  ES64L-G16RevA.03 25-Dec-2016

 ----------------------------------------------------------------------
 #p opt=(maxcycles=777) freq ub3lyp/aug-cc-pVDZ pop=(Bonding,AllOrbital
 s,mk,no,nboread)
 ----------------------------------------------------------------------

 -----------------------
 TfO-_UB3LYP-aug-cc-pVDZ
 -----------------------
 Symbolic Z-matrix:
 Charge = -1 Multiplicity = 1

 SCF Done:  E(UB3LYP) =  -961.616093118     A.U. after   12 cycles
 Optimization completed.
    -- Stationary point found.
 Normal termination of Gaussian 16 at Sun Aug  2 03:44:38 2020.

 ----------------------------------------------------------------------
 #P Geom=AllCheck Guess=TCheck SCRF=Check GenChk UB3LYP/Aug-CC-pVDZ Fre
 q
 ----------------------------------------------------------------------

 Structure from the checkpoint file:  "TfO-_UB3LYP-aug-cc-pVDZ-Opt.chk"
 -----------------------
 TfO-_UB3LYP-aug-cc-pVDZ
 -----------------------
 Charge = -1 Multiplicity = 1

                         Standard orientation:
 ---------------------------------------------------------------------
 Center     Atomic      Atomic             Coordinates (Angstroms)
 Number     Number       Type             X           Y           Z
 ---------------------------------------------------------------------
      1         16           0        0.944432   -0.000060   -0.000179
      2          6           0       -0.965320   -0.000200   -0.000037
      3          8           0        1.264385   -0.101963    1.462569
      4          8           0        1.264004    1.317908   -0.643154
      5          9           0       -1.469646    0.087705   -1.256648
      6          9           0       -1.469030   -1.132303    0.552677
      7          9           0       -1.468247    1.044780    0.704556
      8          8           0        1.264525   -1.215881   -0.819686
 ---------------------------------------------------------------------

 SCF Done:  E(UB3LYP) =  -961.616093118     A.U. after    1 cycles

 Mulliken charges and spin densities:
               1          2
     1  S    2.083860  -0.000000
     2  C    0.926262   0.000000
     3  O   -0.899558   0.000000
     4  O   -0.899573  -0.000000
     5  F   -0.437177   0.000000
     6  F   -0.437077  -0.000000
     7  F   -0.437207   0.000000
     8  O   -0.899530   0.000000
 Sum of Mulliken charges =  -1.00000   0.00000

 Dipole moment (field-independent basis, Debye):
    X=             -4.1772    Y=             -0.0016    Z=             -0.0002  Tot=              4.1772
 Quadrupole moment (field-independent basis, Debye-Ang):
   XX=            -62.7349   YY=            -61.0027   ZZ=            -61.0010
   XY=              0.0023   XZ=             -0.0002   YZ=             -0.0002

  Exact polarizability:  57.523   0.001  54.287   0.003  -0.002  54.283
 Approx polarizability:  75.122   0.001  83.775   0.008  -0.002  83.763

 ESP charges:
               1
     1  S    0.992279
     2  C    0.374454
     3  O   -0.598866
     4  O   -0.599890
     5  F   -0.189750
     6  F   -0.189528
     7  F   -0.188819
     8  O   -0.599880
 Sum of ESP charges =  -1.00000

 Summary of Natural Population Analysis:

                                       Natural Population
                Natural  -----------------------------------------------
    Atom  No    Charge         Core      Valence    Rydberg      Total
 -----------------------------------------------------------------------
      S    1    1.14101      4.99933     1.76294    0.09671     6.85899
      C    2    0.43622      0.99982     1.52644    0.03752     2.56378
      O    3   -0.49640      0.99993     3.47894    0.01754     4.49640
      O    4   -0.49639      0.99993     3.47893    0.01753     4.49639
      F    5   -0.19601      0.99996     3.68568    0.01037     4.69601
      F    6   -0.19599      0.99996     3.68566    0.01037     4.69599
      F    7   -0.19603      0.99996     3.68571    0.01037     4.69603
      O    8   -0.49641      0.99993     3.47894    0.01754     4.49641
 =======================================================================
   * Total *   -0.50000     11.99880    24.78324    0.21796    37.00000

                      1                      2                      3
                      A                      A                      A
 Frequencies --     55.8249               179.3119               179.4176
 Red. masses --     17.4660                17.2241                17.2240
 Frc consts  --      0.0321                 0.3263                 0.3267
 IR Inten    --      0.0000                 0.8357                 0.8358

                      4                      5                      6
                      A                      A                      A
 Frequencies --    262.9835               313.8831               313.9888
 Red. masses --     18.1169                17.5023                17.5032
 Frc consts  --      0.7382                 1.0160                 1.0167
 IR Inten    --      0.1821                 0.1746                 0.1745

                      7                      8                      9
                      A                      A                      A
 Frequencies --    470.6494               470.7389               534.1996
 Red. masses --     17.8455                17.8452                18.1757
 Frc consts  --      2.3290                 2.3299                 3.0560
 IR Inten    --     15.4925                15.4917                 4.3275

                     10                     11                     12
                      A                      A                      A
 Frequencies --    534.2551               582.8204               714.7040
 Red. masses --     18.1756                21.4843                18.1951
 Frc consts  --      3.0566                 4.2997                 5.4759
 IR Inten    --      4.3254               163.8538                 2.8258

                     13                     14                     15
                      A                      A                      A
 Frequencies --    938.3946              1101.6160              1102.0050
 Red. masses --     16.3322                13.4509                13.4564
 Frc consts  --      8.4736                 9.6175                 9.6282
 IR Inten    --    156.6632               111.2065               110.3392

                     16                     17                     18
                      A                      A                      A
 Frequencies --   1154.8971              1174.9251              1175.1293
 Red. masses --     13.6459                19.8967                19.9076
 Frc consts  --     10.7236                16.1827                16.1973
 IR Inten    --     97.4398               417.6294               416.8444

 - Thermochemistry -
 -------------------
 Temperature   298.150 Kelvin.  Pressure   1.00000 Atm.
 Atom     1 has atomic number 16 and mass  31.97207

 Molecular mass:   148.95203 amu.
 Principal axes and moments of inertia in atomic units:
                           1         2         3
     Eigenvalues --   691.534651200.133161200.21435
           X            1.00000  -0.00000  -0.00000
           Y            0.00000   0.99999  -0.00415
           Z            0.00000   0.00415   0.99999
 This molecule is an asymmetric top.
 Rotational symmetry number  1.
 Warning -- assumption of classical behavior for rotation
           may cause significant error
 Rotational temperatures (Kelvin)      0.12525     0.07217     0.07217
 Rotational constants (GHZ):           2.60976     1.50378     1.50368
 Zero-point vibrational energy      67348.2 (Joules/Mol)
                                   16.09661 (Kcal/Mol)
 Warning -- explicit consideration of  11 degrees of freedom as
           vibrations may cause significant error
 Vibrational temperatures:     80.32   257.99   258.14   378.37   451.61
          (Kelvin)            451.76   677.16   677.29   768.59   768.67
                              838.55  1028.30  1350.14  1584.98  1585.54
                             1661.64  1690.46  1690.75

 Zero-point correction=                           0.025652 (Hartree/Particle)
 Thermal correction to Energy=                    0.033092
 Thermal correction to Enthalpy=                  0.034036
 Thermal correction to Gibbs Free Energy=        -0.007144
 Sum of electronic and zero-point Energies=           -961.590442
 Sum of electronic and thermal Energies=              -961.583001
 Sum of electronic and thermal Enthalpies=            -961.582057
 Sum of electronic and thermal Free Energies=         -961.623237

                     E (Thermal)             CV                S
                      KCal/Mol        Cal/Mol-Kelvin    Cal/Mol-Kelvin
 Total                   20.766             25.242             86.671
 Electronic               0.000              0.000              0.000
 Translational            0.889              2.981             40.906
 Rotational               0.889              2.981             28.390
 Vibrational             18.988             19.280             17.376
 Vibration     1          0.596              1.975              4.600
 Vibration     2          0.629              1.868              2.336
 Vibration     3          0.629              1.868              2.334
 Vibration     4          0.670              1.741              1.642
 Vibration     5          0.702              1.647              1.342
 Vibration     6          0.702              1.647              1.341
 Vibration     7          0.828              1.315              0.736
 Vibration     8          0.828              1.315              0.735
 Vibration     9          0.889              1.174              0.578
 Vibration    10          0.889              1.174              0.578
 Vibration    11          0.940              1.068              0.480

 Optimization completed.
    -- Stationary point found.
 Normal termination of Gaussian 16 at Sun Aug  2 03:48:22 2020.
